# Force coefficients
# dragDir     : (1.000000e+00 0.000000e+00 0.000000e+00)
# sideDir     : (0.000000e+00 0.000000e+00 -1.000000e+00)
# liftDir     : (0.000000e+00 1.000000e+00 0.000000e+00)
# rollAxis    : (1.000000e+00 0.000000e+00 0.000000e+00)
# pitchAxis   : (0.000000e+00 0.000000e+00 -1.000000e+00)
# yawAxis     : (0.000000e+00 1.000000e+00 0.000000e+00)
# magUInf     : 6.000000e-02
# lRef        : 1.000000e-01
# Aref        : 1.000000e-01
# CofR        : (0.000000e+00 0.000000e+00 0.000000e+00)
#
# Time        	Cd            	Cs            	Cl            	CmRoll        	CmPitch       	CmYaw         	Cd(f)         	Cd(r)         	Cs(f)         	Cs(r)         	Cl(f)         	Cl(r)         
1             	1.434868e-03	6.494221e-21	-1.955330e-03	4.888325e-05	6.670461e-03	3.587170e-05	7.663172e-04	6.685507e-04	3.587170e-05	-3.587170e-05	5.692796e-03	-7.648126e-03
2             	6.231887e-03	-1.146758e-19	-7.914742e-03	1.978685e-04	2.744548e-02	1.557972e-04	3.313812e-03	2.918075e-03	1.557972e-04	-1.557972e-04	2.348811e-02	-3.140285e-02
3             	6.208711e-03	-1.841287e-19	-7.444780e-03	1.861195e-04	2.609255e-02	1.552178e-04	3.290475e-03	2.918236e-03	1.552178e-04	-1.552178e-04	2.237016e-02	-2.981494e-02
4             	5.769215e-03	-1.178661e-19	-6.983165e-03	1.745791e-04	2.413019e-02	1.442304e-04	3.059187e-03	2.710028e-03	1.442304e-04	-1.442304e-04	2.063861e-02	-2.762177e-02
5             	5.431287e-03	4.424331e-21	-6.749301e-03	1.687325e-04	2.290949e-02	1.357822e-04	2.884376e-03	2.546911e-03	1.357822e-04	-1.357822e-04	1.953484e-02	-2.628414e-02
6             	5.739197e-03	6.809888e-20	-7.482473e-03	1.870618e-04	2.485886e-02	1.434799e-04	3.056660e-03	2.682537e-03	1.434799e-04	-1.434799e-04	2.111763e-02	-2.860010e-02
7             	6.005052e-03	9.235488e-20	-7.966512e-03	1.991628e-04	2.626706e-02	1.501263e-04	3.201689e-03	2.803363e-03	1.501263e-04	-1.501263e-04	2.228380e-02	-3.025031e-02
8             	6.307275e-03	8.974036e-20	-8.364610e-03	2.091153e-04	2.762823e-02	1.576819e-04	3.362753e-03	2.944522e-03	1.576819e-04	-1.576819e-04	2.344592e-02	-3.181053e-02
9             	6.374199e-03	8.023877e-20	-8.265521e-03	2.066380e-04	2.757160e-02	1.593550e-04	3.393737e-03	2.980461e-03	1.593550e-04	-1.593550e-04	2.343884e-02	-3.170436e-02
10            	6.284247e-03	6.724777e-20	-7.960166e-03	1.990041e-04	2.681256e-02	1.571062e-04	3.341127e-03	2.943119e-03	1.571062e-04	-1.571062e-04	2.283247e-02	-3.079264e-02
11            	5.999596e-03	5.697433e-20	-7.442654e-03	1.860663e-04	2.524103e-02	1.499899e-04	3.185864e-03	2.813732e-03	1.499899e-04	-1.499899e-04	2.151970e-02	-2.896236e-02
12            	5.721955e-03	5.629031e-20	-6.909362e-03	1.727341e-04	2.368404e-02	1.430489e-04	3.033712e-03	2.688243e-03	1.430489e-04	-1.430489e-04	2.022936e-02	-2.713873e-02
13            	5.432661e-03	5.528859e-20	-6.280022e-03	1.570005e-04	2.193798e-02	1.358165e-04	2.873331e-03	2.559330e-03	1.358165e-04	-1.358165e-04	1.879797e-02	-2.507800e-02
14            	5.177021e-03	5.271090e-20	-5.702169e-03	1.425542e-04	2.034612e-02	1.294255e-04	2.731064e-03	2.445956e-03	1.294255e-04	-1.294255e-04	1.749503e-02	-2.319720e-02
15            	4.942922e-03	5.193501e-20	-5.206920e-03	1.301730e-04	1.894685e-02	1.235731e-04	2.601634e-03	2.341288e-03	1.235731e-04	-1.235731e-04	1.634339e-02	-2.155031e-02
16            	4.727515e-03	5.106504e-20	-4.794498e-03	1.198624e-04	1.773409e-02	1.181879e-04	2.483620e-03	2.243895e-03	1.181879e-04	-1.181879e-04	1.533684e-02	-2.013134e-02
17            	4.479360e-03	4.975826e-20	-4.374568e-03	1.093642e-04	1.644018e-02	1.119840e-04	2.349044e-03	2.130316e-03	1.119840e-04	-1.119840e-04	1.425289e-02	-1.862746e-02
18            	4.362047e-03	4.834082e-20	-4.201555e-03	1.050389e-04	1.589124e-02	1.090512e-04	2.286063e-03	2.075985e-03	1.090512e-04	-1.090512e-04	1.379046e-02	-1.799201e-02
19            	4.234650e-03	4.588306e-20	-4.031390e-03	1.007847e-04	1.531591e-02	1.058662e-04	2.218110e-03	2.016540e-03	1.058662e-04	-1.058662e-04	1.330022e-02	-1.733161e-02
20            	4.166457e-03	4.312275e-20	-3.978357e-03	9.945894e-05	1.508880e-02	1.041614e-04	2.182688e-03	1.983770e-03	1.041614e-04	-1.041614e-04	1.309962e-02	-1.707798e-02
21            	4.143877e-03	3.897392e-20	-3.999332e-03	9.998330e-05	1.509288e-02	1.035969e-04	2.171922e-03	1.971955e-03	1.035969e-04	-1.035969e-04	1.309321e-02	-1.709254e-02
22            	4.163525e-03	3.539436e-20	-4.089064e-03	1.022266e-04	1.531035e-02	1.040881e-04	2.183989e-03	1.979536e-03	1.040881e-04	-1.040881e-04	1.326582e-02	-1.735488e-02
23            	4.199673e-03	3.276003e-20	-4.213107e-03	1.053277e-04	1.562262e-02	1.049918e-04	2.205164e-03	1.994509e-03	1.049918e-04	-1.049918e-04	1.351606e-02	-1.772917e-02
24            	4.254676e-03	3.118247e-20	-4.370472e-03	1.092618e-04	1.603799e-02	1.063669e-04	2.236600e-03	2.018076e-03	1.063669e-04	-1.063669e-04	1.385276e-02	-1.822323e-02
25            	4.310195e-03	3.121926e-20	-4.500394e-03	1.125099e-04	1.640096e-02	1.077549e-04	2.267607e-03	2.042588e-03	1.077549e-04	-1.077549e-04	1.415077e-02	-1.865116e-02
26            	4.354618e-03	3.190502e-20	-4.584575e-03	1.146144e-04	1.665462e-02	1.088655e-04	2.291924e-03	2.062695e-03	1.088655e-04	-1.088655e-04	1.436234e-02	-1.894691e-02
27            	4.390003e-03	3.229663e-20	-4.628472e-03	1.157118e-04	1.681161e-02	1.097501e-04	2.310713e-03	2.079290e-03	1.097501e-04	-1.097501e-04	1.449737e-02	-1.912584e-02
28            	4.399936e-03	3.303496e-20	-4.606299e-03	1.151575e-04	1.678298e-02	1.099984e-04	2.315125e-03	2.084810e-03	1.099984e-04	-1.099984e-04	1.447983e-02	-1.908613e-02
29            	4.400054e-03	3.527330e-20	-4.566081e-03	1.141520e-04	1.669453e-02	1.100014e-04	2.314179e-03	2.085875e-03	1.100014e-04	-1.100014e-04	1.441149e-02	-1.897757e-02
30            	4.365648e-03	3.764912e-20	-4.495710e-03	1.123928e-04	1.646816e-02	1.091412e-04	2.295217e-03	2.070431e-03	1.091412e-04	-1.091412e-04	1.422030e-02	-1.871601e-02
31            	4.331060e-03	3.808880e-20	-4.443824e-03	1.110956e-04	1.627908e-02	1.082765e-04	2.276626e-03	2.054434e-03	1.082765e-04	-1.082765e-04	1.405717e-02	-1.850099e-02
32            	4.310103e-03	3.567747e-20	-4.425099e-03	1.106275e-04	1.616897e-02	1.077526e-04	2.265679e-03	2.044424e-03	1.077526e-04	-1.077526e-04	1.395642e-02	-1.838152e-02
33            	4.313063e-03	3.288484e-20	-4.458449e-03	1.114612e-04	1.620559e-02	1.078266e-04	2.267993e-03	2.045070e-03	1.078266e-04	-1.078266e-04	1.397636e-02	-1.843481e-02
34            	4.346389e-03	2.970139e-20	-4.554419e-03	1.138605e-04	1.642574e-02	1.086597e-04	2.287055e-03	2.059334e-03	1.086597e-04	-1.086597e-04	1.414853e-02	-1.870295e-02
35            	4.399851e-03	2.902159e-20	-4.711934e-03	1.177984e-04	1.680761e-02	1.099963e-04	2.317724e-03	2.082127e-03	1.099963e-04	-1.099963e-04	1.445164e-02	-1.916358e-02
36            	4.530574e-03	2.827585e-20	-5.009747e-03	1.252437e-04	1.763743e-02	1.132643e-04	2.390531e-03	2.140043e-03	1.132643e-04	-1.132643e-04	1.513256e-02	-2.014230e-02
37            	4.694661e-03	2.884643e-20	-5.358419e-03	1.339605e-04	1.865549e-02	1.173665e-04	2.481291e-03	2.213370e-03	1.173665e-04	-1.173665e-04	1.597628e-02	-2.133470e-02
38            	4.905597e-03	3.020881e-20	-5.760200e-03	1.440050e-04	1.989350e-02	1.226399e-04	2.596803e-03	2.308793e-03	1.226399e-04	-1.226399e-04	1.701340e-02	-2.277360e-02
39            	5.105051e-03	3.534811e-20	-6.093283e-03	1.523321e-04	2.099327e-02	1.276263e-04	2.704858e-03	2.400194e-03	1.276263e-04	-1.276263e-04	1.794663e-02	-2.403991e-02
40            	5.267032e-03	4.097220e-20	-6.289849e-03	1.572462e-04	2.175877e-02	1.316758e-04	2.790762e-03	2.476270e-03	1.316758e-04	-1.316758e-04	1.861385e-02	-2.490370e-02
41            	5.325760e-03	4.455965e-20	-6.257192e-03	1.564298e-04	2.184910e-02	1.331440e-04	2.819310e-03	2.506450e-03	1.331440e-04	-1.331440e-04	1.872050e-02	-2.497770e-02
42            	5.252942e-03	4.672073e-20	-6.051252e-03	1.512813e-04	2.129182e-02	1.313235e-04	2.777752e-03	2.475190e-03	1.313235e-04	-1.313235e-04	1.826620e-02	-2.431745e-02
43            	5.057804e-03	5.352790e-20	-5.696655e-03	1.424164e-04	2.017766e-02	1.264451e-04	2.671318e-03	2.386486e-03	1.264451e-04	-1.264451e-04	1.732934e-02	-2.302599e-02
44            	4.874909e-03	5.530554e-20	-5.385291e-03	1.346323e-04	1.916388e-02	1.218727e-04	2.572087e-03	2.302822e-03	1.218727e-04	-1.218727e-04	1.647124e-02	-2.185653e-02
45            	4.736610e-03	5.084400e-20	-5.157619e-03	1.289405e-04	1.839424e-02	1.184153e-04	2.497246e-03	2.239365e-03	1.184153e-04	-1.184153e-04	1.581543e-02	-2.097305e-02
46            	4.648174e-03	4.619350e-20	-5.031549e-03	1.257887e-04	1.792951e-02	1.162044e-04	2.449876e-03	2.198298e-03	1.162044e-04	-1.162044e-04	1.541373e-02	-2.044528e-02
47            	4.607559e-03	4.327531e-20	-5.004662e-03	1.251166e-04	1.775983e-02	1.151890e-04	2.428896e-03	2.178663e-03	1.151890e-04	-1.151890e-04	1.525750e-02	-2.026217e-02
48            	4.619602e-03	4.107776e-20	-5.078412e-03	1.269603e-04	1.791251e-02	1.154901e-04	2.436761e-03	2.182841e-03	1.154901e-04	-1.154901e-04	1.537331e-02	-2.045172e-02
49            	4.690773e-03	3.875917e-20	-5.237418e-03	1.309355e-04	1.837882e-02	1.172693e-04	2.476322e-03	2.214451e-03	1.172693e-04	-1.172693e-04	1.576011e-02	-2.099752e-02
50            	4.776674e-03	3.784951e-20	-5.403829e-03	1.350957e-04	1.891660e-02	1.194168e-04	2.523433e-03	2.253241e-03	1.194168e-04	-1.194168e-04	1.621469e-02	-2.161852e-02
51            	4.889668e-03	3.929595e-20	-5.559358e-03	1.389840e-04	1.951332e-02	1.222417e-04	2.583818e-03	2.305850e-03	1.222417e-04	-1.222417e-04	1.673364e-02	-2.229300e-02
52            	4.942408e-03	4.188865e-20	-5.565227e-03	1.391307e-04	1.969552e-02	1.235602e-04	2.610335e-03	2.332074e-03	1.235602e-04	-1.235602e-04	1.691291e-02	-2.247813e-02
53            	4.929692e-03	4.142496e-20	-5.428088e-03	1.357022e-04	1.944363e-02	1.232423e-04	2.600548e-03	2.329144e-03	1.232423e-04	-1.232423e-04	1.672959e-02	-2.215768e-02
54            	4.832011e-03	4.453357e-20	-5.190552e-03	1.297638e-04	1.879072e-02	1.208003e-04	2.545769e-03	2.286242e-03	1.208003e-04	-1.208003e-04	1.619544e-02	-2.138599e-02
55            	4.675909e-03	5.130368e-20	-4.920028e-03	1.230007e-04	1.792710e-02	1.168977e-04	2.460955e-03	2.214954e-03	1.168977e-04	-1.168977e-04	1.546709e-02	-2.038712e-02
56            	4.536076e-03	5.253274e-20	-4.707083e-03	1.176771e-04	1.719923e-02	1.134019e-04	2.385715e-03	2.150361e-03	1.134019e-04	-1.134019e-04	1.484569e-02	-1.955277e-02
57            	4.455010e-03	4.904782e-20	-4.589451e-03	1.147363e-04	1.676512e-02	1.113753e-04	2.342241e-03	2.112769e-03	1.113753e-04	-1.113753e-04	1.447039e-02	-1.905984e-02
58            	4.428784e-03	4.224308e-20	-4.587359e-03	1.146840e-04	1.666309e-02	1.107196e-04	2.329076e-03	2.099708e-03	1.107196e-04	-1.107196e-04	1.436941e-02	-1.895676e-02
59            	4.442251e-03	3.693329e-20	-4.701311e-03	1.175328e-04	1.686398e-02	1.110563e-04	2.338658e-03	2.103592e-03	1.110563e-04	-1.110563e-04	1.451332e-02	-1.921464e-02
60            	4.560396e-03	3.415381e-20	-5.002519e-03	1.250630e-04	1.767235e-02	1.140099e-04	2.405261e-03	2.155135e-03	1.140099e-04	-1.140099e-04	1.517109e-02	-2.017361e-02
61            	4.748924e-03	3.432777e-20	-5.384600e-03	1.346150e-04	1.881896e-02	1.187231e-04	2.509077e-03	2.239847e-03	1.187231e-04	-1.187231e-04	1.612666e-02	-2.151126e-02
62            	4.963238e-03	3.522691e-20	-5.742925e-03	1.435731e-04	2.001005e-02	1.240809e-04	2.625192e-03	2.338046e-03	1.240809e-04	-1.240809e-04	1.713858e-02	-2.288151e-02
63            	5.123805e-03	4.162915e-20	-5.920946e-03	1.480237e-04	2.075390e-02	1.280951e-04	2.709926e-03	2.413879e-03	1.280951e-04	-1.280951e-04	1.779342e-02	-2.371437e-02
64            	5.165154e-03	4.505056e-20	-5.858958e-03	1.464739e-04	2.075752e-02	1.291289e-04	2.729051e-03	2.436103e-03	1.291289e-04	-1.291289e-04	1.782804e-02	-2.368700e-02
65            	5.076680e-03	4.678172e-20	-5.661529e-03	1.415382e-04	2.017447e-02	1.269170e-04	2.679878e-03	2.396802e-03	1.269170e-04	-1.269170e-04	1.734371e-02	-2.300524e-02
66            	4.912052e-03	5.666868e-20	-5.400047e-03	1.350012e-04	1.928965e-02	1.228013e-04	2.591027e-03	2.321025e-03	1.228013e-04	-1.228013e-04	1.658962e-02	-2.198967e-02
67            	4.766444e-03	5.730812e-20	-5.191046e-03	1.297761e-04	1.854011e-02	1.191611e-04	2.512998e-03	2.253446e-03	1.191611e-04	-1.191611e-04	1.594459e-02	-2.113563e-02
68            	4.707506e-03	5.130368e-20	-5.114498e-03	1.278624e-04	1.822337e-02	1.176877e-04	2.481616e-03	2.225891e-03	1.176877e-04	-1.176877e-04	1.566613e-02	-2.078062e-02
69            	4.640049e-03	4.610550e-20	-5.060513e-03	1.265128e-04	1.792021e-02	1.160012e-04	2.446537e-03	2.193512e-03	1.160012e-04	-1.160012e-04	1.538995e-02	-2.045046e-02
70            	4.692946e-03	4.178443e-20	-5.228445e-03	1.307111e-04	1.832066e-02	1.173237e-04	2.477184e-03	2.215762e-03	1.173237e-04	-1.173237e-04	1.570644e-02	-2.093488e-02
71            	4.779878e-03	4.020285e-20	-5.445107e-03	1.361277e-04	1.891032e-02	1.194969e-04	2.526067e-03	2.253811e-03	1.194969e-04	-1.194969e-04	1.618777e-02	-2.163287e-02
72            	4.924601e-03	3.793362e-20	-5.732554e-03	1.433139e-04	1.979859e-02	1.231150e-04	2.605614e-03	2.318987e-03	1.231150e-04	-1.231150e-04	1.693231e-02	-2.266487e-02
73            	5.070504e-03	3.927075e-20	-5.950610e-03	1.487652e-04	2.058384e-02	1.267626e-04	2.684017e-03	2.386487e-03	1.267626e-04	-1.267626e-04	1.760853e-02	-2.355914e-02
74            	5.183598e-03	4.356268e-20	-6.053384e-03	1.513346e-04	2.109040e-02	1.295899e-04	2.743134e-03	2.440464e-03	1.295899e-04	-1.295899e-04	1.806371e-02	-2.411709e-02
75            	5.209151e-03	4.431178e-20	-5.954789e-03	1.488697e-04	2.100502e-02	1.302288e-04	2.753445e-03	2.455706e-03	1.302288e-04	-1.302288e-04	1.802762e-02	-2.398241e-02
76            	5.104420e-03	4.704761e-20	-5.700350e-03	1.425087e-04	2.029987e-02	1.276105e-04	2.694719e-03	2.409701e-03	1.276105e-04	-1.276105e-04	1.744969e-02	-2.315004e-02
77            	4.934100e-03	5.623774e-20	-5.410865e-03	1.352716e-04	1.935893e-02	1.233525e-04	2.602322e-03	2.331778e-03	1.233525e-04	-1.233525e-04	1.665350e-02	-2.206437e-02
78            	4.772843e-03	5.869546e-20	-5.166856e-03	1.291714e-04	1.851444e-02	1.193211e-04	2.515593e-03	2.257250e-03	1.193211e-04	-1.193211e-04	1.593101e-02	-2.109787e-02
79            	4.683995e-03	5.497971e-20	-5.039034e-03	1.259758e-04	1.803361e-02	1.170999e-04	2.467973e-03	2.216022e-03	1.170999e-04	-1.170999e-04	1.551409e-02	-2.055313e-02
80            	4.641689e-03	4.772686e-20	-5.020172e-03	1.255043e-04	1.785422e-02	1.160422e-04	2.446349e-03	2.195340e-03	1.160422e-04	-1.160422e-04	1.534413e-02	-2.036430e-02
81            	4.672623e-03	4.232333e-20	-5.163309e-03	1.290827e-04	1.814691e-02	1.168156e-04	2.465394e-03	2.207229e-03	1.168156e-04	-1.168156e-04	1.556525e-02	-2.072856e-02
82            	4.788518e-03	3.962494e-20	-5.454232e-03	1.363558e-04	1.893617e-02	1.197130e-04	2.530615e-03	2.257903e-03	1.197130e-04	-1.197130e-04	1.620905e-02	-2.166329e-02
83            	4.951183e-03	3.851456e-20	-5.787832e-03	1.446958e-04	1.994778e-02	1.237796e-04	2.620287e-03	2.330896e-03	1.237796e-04	-1.237796e-04	1.705386e-02	-2.284169e-02
84            	5.139493e-03	3.947327e-20	-6.087787e-03	1.521947e-04	2.098514e-02	1.284873e-04	2.721941e-03	2.417552e-03	1.284873e-04	-1.284873e-04	1.794125e-02	-2.402904e-02
85            	5.282523e-03	4.498012e-20	-6.228146e-03	1.557037e-04	2.163293e-02	1.320631e-04	2.796965e-03	2.485558e-03	1.320631e-04	-1.320631e-04	1.851885e-02	-2.474700e-02
86            	5.307967e-03	4.741508e-20	-6.131413e-03	1.532853e-04	2.155155e-02	1.326992e-04	2.807269e-03	2.500698e-03	1.326992e-04	-1.326992e-04	1.848585e-02	-2.461726e-02
87            	5.205378e-03	4.772841e-20	-5.895638e-03	1.473909e-04	2.088153e-02	1.301344e-04	2.750080e-03	2.455298e-03	1.301344e-04	-1.301344e-04	1.793371e-02	-2.382935e-02
88            	5.022639e-03	5.765989e-20	-5.591958e-03	1.397990e-04	1.988707e-02	1.255660e-04	2.651118e-03	2.371520e-03	1.255660e-04	-1.255660e-04	1.709109e-02	-2.268305e-02
89            	4.851150e-03	5.947319e-20	-5.330233e-03	1.332558e-04	1.898284e-02	1.212787e-04	2.558831e-03	2.292319e-03	1.212787e-04	-1.212787e-04	1.631772e-02	-2.164796e-02
90            	4.752105e-03	5.573784e-20	-5.179228e-03	1.294807e-04	1.843034e-02	1.188026e-04	2.505533e-03	2.246572e-03	1.188026e-04	-1.188026e-04	1.584073e-02	-2.101995e-02
91            	4.683548e-03	4.950863e-20	-5.114705e-03	1.278676e-04	1.810489e-02	1.170887e-04	2.469642e-03	2.213906e-03	1.170887e-04	-1.170887e-04	1.554754e-02	-2.066224e-02
92            	4.701495e-03	4.399935e-20	-5.231703e-03	1.307926e-04	1.832126e-02	1.175374e-04	2.481540e-03	2.219955e-03	1.175374e-04	-1.175374e-04	1.570541e-02	-2.093711e-02
93            	4.803538e-03	4.079814e-20	-5.489531e-03	1.372383e-04	1.901662e-02	1.200884e-04	2.539007e-03	2.264531e-03	1.200884e-04	-1.200884e-04	1.627186e-02	-2.176139e-02
94            	4.957910e-03	3.896850e-20	-5.803028e-03	1.450757e-04	1.997250e-02	1.239478e-04	2.624031e-03	2.333879e-03	1.239478e-04	-1.239478e-04	1.707099e-02	-2.287402e-02
95            	5.137970e-03	3.943037e-20	-6.084877e-03	1.521219e-04	2.095904e-02	1.284492e-04	2.721107e-03	2.416863e-03	1.284492e-04	-1.284492e-04	1.791660e-02	-2.400148e-02
96            	5.264968e-03	4.481806e-20	-6.202510e-03	1.550627e-04	2.152855e-02	1.316242e-04	2.787547e-03	2.477421e-03	1.316242e-04	-1.316242e-04	1.842729e-02	-2.462980e-02
97            	5.301669e-03	4.600393e-20	-6.127933e-03	1.531983e-04	2.152153e-02	1.325417e-04	2.804033e-03	2.497636e-03	1.325417e-04	-1.325417e-04	1.845756e-02	-2.458549e-02
98            	5.197549e-03	4.805882e-20	-5.872552e-03	1.468138e-04	2.082277e-02	1.299387e-04	2.745588e-03	2.451961e-03	1.299387e-04	-1.299387e-04	1.788649e-02	-2.375905e-02
99            	5.022815e-03	5.649657e-20	-5.575520e-03	1.393880e-04	1.985819e-02	1.255704e-04	2.650796e-03	2.372020e-03	1.255704e-04	-1.255704e-04	1.707043e-02	-2.264595e-02
100           	4.838582e-03	6.004344e-20	-5.293505e-03	1.323376e-04	1.889429e-02	1.209646e-04	2.551629e-03	2.286953e-03	1.209646e-04	-1.209646e-04	1.624753e-02	-2.154104e-02
101           	4.730405e-03	5.624618e-20	-5.130392e-03	1.282598e-04	1.830171e-02	1.182601e-04	2.493462e-03	2.236943e-03	1.182601e-04	-1.182601e-04	1.573651e-02	-2.086691e-02
102           	4.670727e-03	4.984114e-20	-5.071557e-03	1.267889e-04	1.800548e-02	1.167682e-04	2.462153e-03	2.208575e-03	1.167682e-04	-1.167682e-04	1.546970e-02	-2.054126e-02
103           	4.678406e-03	4.423811e-20	-5.172632e-03	1.293158e-04	1.816231e-02	1.169601e-04	2.468519e-03	2.209887e-03	1.169601e-04	-1.169601e-04	1.557600e-02	-2.074863e-02
104           	4.784096e-03	4.041867e-20	-5.446417e-03	1.361604e-04	1.889220e-02	1.196024e-04	2.528209e-03	2.255888e-03	1.196024e-04	-1.196024e-04	1.616899e-02	-2.161540e-02
105           	4.935906e-03	3.890838e-20	-5.766544e-03	1.441636e-04	1.984981e-02	1.233976e-04	2.612116e-03	2.323789e-03	1.233976e-04	-1.233976e-04	1.696654e-02	-2.273308e-02
106           	5.129537e-03	3.870881e-20	-6.082099e-03	1.520525e-04	2.092714e-02	1.282384e-04	2.716821e-03	2.412716e-03	1.282384e-04	-1.282384e-04	1.788609e-02	-2.396819e-02
107           	5.281980e-03	4.445708e-20	-6.247050e-03	1.561762e-04	2.164568e-02	1.320495e-04	2.797166e-03	2.484814e-03	1.320495e-04	-1.320495e-04	1.852215e-02	-2.476920e-02
108           	5.323502e-03	4.757044e-20	-6.177476e-03	1.544369e-04	2.166058e-02	1.330876e-04	2.816188e-03	2.507314e-03	1.330876e-04	-1.330876e-04	1.857184e-02	-2.474931e-02
109           	5.238473e-03	4.782721e-20	-5.954220e-03	1.488555e-04	2.106499e-02	1.309618e-04	2.768092e-03	2.470381e-03	1.309618e-04	-1.309618e-04	1.808788e-02	-2.404210e-02
110           	5.057091e-03	5.637284e-20	-5.648588e-03	1.412147e-04	2.006778e-02	1.264273e-04	2.669760e-03	2.387331e-03	1.264273e-04	-1.264273e-04	1.724349e-02	-2.289208e-02
111           	4.879665e-03	6.016538e-20	-5.377669e-03	1.344417e-04	1.914028e-02	1.219916e-04	2.574274e-03	2.305391e-03	1.219916e-04	-1.219916e-04	1.645145e-02	-2.182912e-02
112           	4.765540e-03	5.641082e-20	-5.202741e-03	1.300685e-04	1.851232e-02	1.191385e-04	2.512839e-03	2.252702e-03	1.191385e-04	-1.191385e-04	1.591095e-02	-2.111370e-02
113           	4.700907e-03	5.019280e-20	-5.132690e-03	1.283172e-04	1.818467e-02	1.175227e-04	2.478771e-03	2.222136e-03	1.175227e-04	-1.175227e-04	1.561833e-02	-2.075102e-02
114           	4.699060e-03	4.485871e-20	-5.213638e-03	1.303409e-04	1.828323e-02	1.174765e-04	2.479871e-03	2.219189e-03	1.174765e-04	-1.174765e-04	1.567641e-02	-2.089005e-02
115           	4.789227e-03	4.099250e-20	-5.451403e-03	1.362851e-04	1.891019e-02	1.197307e-04	2.530898e-03	2.258328e-03	1.197307e-04	-1.197307e-04	1.618449e-02	-2.163589e-02
116           	4.922452e-03	4.031113e-20	-5.748438e-03	1.437109e-04	1.978225e-02	1.230613e-04	2.604937e-03	2.317515e-03	1.230613e-04	-1.230613e-04	1.690804e-02	-2.265647e-02
117           	5.124014e-03	3.886183e-20	-6.080964e-03	1.520241e-04	2.090775e-02	1.281004e-04	2.714031e-03	2.409983e-03	1.281004e-04	-1.281004e-04	1.786727e-02	-2.394824e-02
118           	5.273291e-03	4.470647e-20	-6.242574e-03	1.560643e-04	2.161633e-02	1.318323e-04	2.792710e-03	2.480581e-03	1.318323e-04	-1.318323e-04	1.849504e-02	-2.473761e-02
119           	5.325571e-03	4.753311e-20	-6.190482e-03	1.547620e-04	2.168836e-02	1.331393e-04	2.817548e-03	2.508023e-03	1.331393e-04	-1.331393e-04	1.859312e-02	-2.478360e-02
120           	5.247263e-03	4.753862e-20	-5.971981e-03	1.492995e-04	2.112131e-02	1.311816e-04	2.772931e-03	2.474332e-03	1.311816e-04	-1.311816e-04	1.813532e-02	-2.410730e-02
121           	5.071740e-03	5.541872e-20	-5.667039e-03	1.416760e-04	2.014289e-02	1.267935e-04	2.677546e-03	2.394194e-03	1.267935e-04	-1.267935e-04	1.730937e-02	-2.297641e-02
122           	4.889203e-03	5.978519e-20	-5.384288e-03	1.346072e-04	1.918409e-02	1.222301e-04	2.579208e-03	2.309994e-03	1.222301e-04	-1.222301e-04	1.649195e-02	-2.187623e-02
123           	4.758618e-03	5.716547e-20	-5.183920e-03	1.295980e-04	1.847216e-02	1.189654e-04	2.508907e-03	2.249711e-03	1.189654e-04	-1.189654e-04	1.588020e-02	-2.106412e-02
124           	4.686774e-03	5.129964e-20	-5.096754e-03	1.274188e-04	1.809558e-02	1.171693e-04	2.470806e-03	2.215968e-03	1.171693e-04	-1.171693e-04	1.554720e-02	-2.064395e-02
125           	4.669749e-03	4.564249e-20	-5.148291e-03	1.287073e-04	1.810412e-02	1.167437e-04	2.463582e-03	2.206167e-03	1.167437e-04	-1.167437e-04	1.552998e-02	-2.067827e-02
126           	4.757842e-03	4.118363e-20	-5.387725e-03	1.346931e-04	1.872598e-02	1.189460e-04	2.513614e-03	2.244228e-03	1.189460e-04	-1.189460e-04	1.603212e-02	-2.141984e-02
127           	4.892787e-03	3.947409e-20	-5.684645e-03	1.421161e-04	1.959515e-02	1.223197e-04	2.588510e-03	2.304278e-03	1.223197e-04	-1.223197e-04	1.675282e-02	-2.243747e-02
128           	5.083210e-03	3.794291e-20	-6.010195e-03	1.502549e-04	2.068000e-02	1.270802e-04	2.691860e-03	2.391350e-03	1.270802e-04	-1.270802e-04	1.767491e-02	-2.368510e-02
129           	5.239738e-03	4.346458e-20	-6.198577e-03	1.549644e-04	2.145141e-02	1.309934e-04	2.774833e-03	2.464904e-03	1.309934e-04	-1.309934e-04	1.835212e-02	-2.455070e-02
130           	5.309387e-03	4.695992e-20	-6.190000e-03	1.547500e-04	2.164498e-02	1.327347e-04	2.809444e-03	2.499944e-03	1.327347e-04	-1.327347e-04	1.854998e-02	-2.473998e-02
131           	5.268067e-03	4.525578e-20	-6.011278e-03	1.502820e-04	2.124033e-02	1.317017e-04	2.784316e-03	2.483752e-03	1.317017e-04	-1.317017e-04	1.823469e-02	-2.424597e-02
132           	5.077788e-03	5.413399e-20	-5.673579e-03	1.418395e-04	2.017145e-02	1.269447e-04	2.680734e-03	2.397055e-03	1.269447e-04	-1.269447e-04	1.733466e-02	-2.300824e-02
133           	4.899956e-03	6.003707e-20	-5.399199e-03	1.349800e-04	1.924283e-02	1.224989e-04	2.584958e-03	2.314998e-03	1.224989e-04	-1.224989e-04	1.654323e-02	-2.194243e-02
134           	4.757917e-03	5.806968e-20	-5.179414e-03	1.294854e-04	1.847445e-02	1.189479e-04	2.508444e-03	2.249473e-03	1.189479e-04	-1.189479e-04	1.588474e-02	-2.106415e-02
135           	4.689371e-03	5.244072e-20	-5.091285e-03	1.272821e-04	1.810451e-02	1.172343e-04	2.471968e-03	2.217403e-03	1.172343e-04	-1.172343e-04	1.555887e-02	-2.065016e-02
136           	4.664821e-03	4.597825e-20	-5.121228e-03	1.280307e-04	1.805755e-02	1.166205e-04	2.460441e-03	2.204380e-03	1.166205e-04	-1.166205e-04	1.549693e-02	-2.061816e-02
137           	4.736434e-03	4.076301e-20	-5.324830e-03	1.331207e-04	1.857070e-02	1.184109e-04	2.501338e-03	2.235096e-03	1.184109e-04	-1.184109e-04	1.590829e-02	-2.123312e-02
138           	4.846441e-03	4.024949e-20	-5.595362e-03	1.398841e-04	1.932847e-02	1.211610e-04	2.563105e-03	2.283337e-03	1.211610e-04	-1.211610e-04	1.653079e-02	-2.212615e-02
139           	5.047803e-03	3.721422e-20	-5.953094e-03	1.488273e-04	2.049184e-02	1.261951e-04	2.672729e-03	2.375074e-03	1.261951e-04	-1.261951e-04	1.751529e-02	-2.346839e-02
140           	5.205054e-03	4.249626e-20	-6.150631e-03	1.537658e-04	2.128253e-02	1.301264e-04	2.756293e-03	2.448761e-03	1.301264e-04	-1.301264e-04	1.820721e-02	-2.435784e-02
141           	5.289374e-03	4.647956e-20	-6.170783e-03	1.542696e-04	2.156214e-02	1.322344e-04	2.798957e-03	2.490417e-03	1.322344e-04	-1.322344e-04	1.847675e-02	-2.464754e-02
142           	5.268093e-03	4.467299e-20	-6.016856e-03	1.504214e-04	2.125370e-02	1.317023e-04	2.784468e-03	2.483625e-03	1.317023e-04	-1.317023e-04	1.824527e-02	-2.426212e-02
143           	5.091651e-03	5.257837e-20	-5.692655e-03	1.423164e-04	2.024334e-02	1.272913e-04	2.688142e-03	2.403509e-03	1.272913e-04	-1.272913e-04	1.739702e-02	-2.308967e-02
144           	4.907030e-03	5.963930e-20	-5.403695e-03	1.350924e-04	1.927217e-02	1.226758e-04	2.588607e-03	2.318423e-03	1.226758e-04	-1.226758e-04	1.657033e-02	-2.197402e-02
145           	4.764608e-03	5.826155e-20	-5.183784e-03	1.295946e-04	1.850489e-02	1.191152e-04	2.511899e-03	2.252709e-03	1.191152e-04	-1.191152e-04	1.591300e-02	-2.109678e-02
146           	4.684384e-03	5.291439e-20	-5.068051e-03	1.267013e-04	1.806312e-02	1.171096e-04	2.468893e-03	2.215491e-03	1.171096e-04	-1.171096e-04	1.552909e-02	-2.059714e-02
147           	4.640467e-03	4.644884e-20	-5.063473e-03	1.265868e-04	1.790427e-02	1.160117e-04	2.446820e-03	2.193647e-03	1.160117e-04	-1.160117e-04	1.537253e-02	-2.043601e-02
148           	4.695384e-03	4.144945e-20	-5.255021e-03	1.313755e-04	1.835312e-02	1.173846e-04	2.479067e-03	2.216316e-03	1.173846e-04	-1.173846e-04	1.572561e-02	-2.098063e-02
149           	4.828544e-03	3.872287e-20	-5.558890e-03	1.389722e-04	1.922043e-02	1.207136e-04	2.553244e-03	2.275300e-03	1.207136e-04	-1.207136e-04	1.644099e-02	-2.199988e-02
150           	5.010903e-03	3.714142e-20	-5.890101e-03	1.472525e-04	2.028807e-02	1.252726e-04	2.652704e-03	2.358199e-03	1.252726e-04	-1.252726e-04	1.734302e-02	-2.323312e-02
151           	5.183210e-03	4.122959e-20	-6.124097e-03	1.531024e-04	2.117576e-02	1.295803e-04	2.744708e-03	2.438503e-03	1.295803e-04	-1.295803e-04	1.811371e-02	-2.423781e-02
152           	5.279770e-03	4.610981e-20	-6.165994e-03	1.541499e-04	2.153033e-02	1.319942e-04	2.794035e-03	2.485735e-03	1.319942e-04	-1.319942e-04	1.844733e-02	-2.461333e-02
153           	5.264371e-03	4.700864e-20	-6.015714e-03	1.503929e-04	2.124527e-02	1.316093e-04	2.782578e-03	2.481793e-03	1.316093e-04	-1.316093e-04	1.823741e-02	-2.425313e-02
154           	5.122614e-03	5.086037e-20	-5.743014e-03	1.435753e-04	2.040922e-02	1.280654e-04	2.704882e-03	2.417732e-03	1.280654e-04	-1.280654e-04	1.753771e-02	-2.328072e-02
155           	4.930543e-03	5.909728e-20	-5.436398e-03	1.359099e-04	1.938634e-02	1.232636e-04	2.601181e-03	2.329361e-03	1.232636e-04	-1.232636e-04	1.666814e-02	-2.210454e-02
156           	4.789715e-03	5.830282e-20	-5.222438e-03	1.305609e-04	1.863483e-02	1.197429e-04	2.525419e-03	2.264297e-03	1.197429e-04	-1.197429e-04	1.602361e-02	-2.124605e-02
157           	4.694141e-03	5.342454e-20	-5.086785e-03	1.271696e-04	1.812129e-02	1.173535e-04	2.474240e-03	2.219901e-03	1.173535e-04	-1.173535e-04	1.557789e-02	-2.066468e-02
158           	4.655564e-03	4.647431e-20	-5.088158e-03	1.272039e-04	1.798739e-02	1.163891e-04	2.454986e-03	2.200578e-03	1.163891e-04	-1.163891e-04	1.544331e-02	-2.053147e-02
159           	4.702061e-03	4.160683e-20	-5.260271e-03	1.315068e-04	1.837569e-02	1.175515e-04	2.482537e-03	2.219524e-03	1.175515e-04	-1.175515e-04	1.574555e-02	-2.100583e-02
160           	4.831438e-03	3.914703e-20	-5.561942e-03	1.390486e-04	1.922586e-02	1.207859e-04	2.554767e-03	2.276670e-03	1.207859e-04	-1.207859e-04	1.644489e-02	-2.200683e-02
161           	5.008581e-03	3.778272e-20	-5.892445e-03	1.473111e-04	2.027663e-02	1.252145e-04	2.651601e-03	2.356979e-03	1.252145e-04	-1.252145e-04	1.733041e-02	-2.322286e-02
162           	5.183463e-03	4.086700e-20	-6.140857e-03	1.535214e-04	2.119437e-02	1.295866e-04	2.745253e-03	2.438210e-03	1.295866e-04	-1.295866e-04	1.812395e-02	-2.426480e-02
163           	5.293640e-03	4.593565e-20	-6.211189e-03	1.552797e-04	2.163199e-02	1.323410e-04	2.802100e-03	2.491540e-03	1.323410e-04	-1.323410e-04	1.852640e-02	-2.473759e-02
164           	5.298198e-03	4.588429e-20	-6.084840e-03	1.521210e-04	2.144210e-02	1.324549e-04	2.801220e-03	2.496978e-03	1.324549e-04	-1.324549e-04	1.839968e-02	-2.448452e-02
165           	5.147153e-03	5.050566e-20	-5.788578e-03	1.447144e-04	2.054558e-02	1.286788e-04	2.718291e-03	2.428862e-03	1.286788e-04	-1.286788e-04	1.765129e-02	-2.343987e-02
166           	4.967358e-03	5.921692e-20	-5.498691e-03	1.374673e-04	1.958181e-02	1.241839e-04	2.621146e-03	2.346211e-03	1.241839e-04	-1.241839e-04	1.683246e-02	-2.233116e-02
167           	4.799725e-03	5.947322e-20	-5.242949e-03	1.310737e-04	1.869622e-02	1.199931e-04	2.530936e-03	2.268789e-03	1.199931e-04	-1.199931e-04	1.607475e-02	-2.131770e-02
168           	4.726072e-03	5.466301e-20	-5.129795e-03	1.282449e-04	1.827471e-02	1.181518e-04	2.491281e-03	2.234791e-03	1.181518e-04	-1.181518e-04	1.570981e-02	-2.083960e-02