# Force coefficients
# dragDir     : (1.000000e+00 0.000000e+00 0.000000e+00)
# sideDir     : (0.000000e+00 0.000000e+00 -1.000000e+00)
# liftDir     : (0.000000e+00 1.000000e+00 0.000000e+00)
# rollAxis    : (1.000000e+00 0.000000e+00 0.000000e+00)
# pitchAxis   : (0.000000e+00 0.000000e+00 -1.000000e+00)
# yawAxis     : (0.000000e+00 1.000000e+00 0.000000e+00)
# magUInf     : 2.000000e-02
# lRef        : 1.000000e-01
# Aref        : 1.000000e-01
# CofR        : (0.000000e+00 0.000000e+00 0.000000e+00)
#
# Time        	Cd            	Cs            	Cl            	CmRoll        	CmPitch       	CmYaw         	Cd(f)         	Cd(r)         	Cs(f)         	Cs(r)         	Cl(f)         	Cl(r)         
1             	5.992438e-03	-1.178760e-19	3.461131e-04	-8.652828e-06	1.096541e-02	1.498109e-04	2.987566e-03	3.004872e-03	1.498109e-04	-1.498109e-04	1.113846e-02	-1.079235e-02
2             	1.486351e-02	-1.352006e-19	-2.120097e-04	5.300242e-06	2.907620e-02	3.715876e-04	7.437053e-03	7.426452e-03	3.715876e-04	-3.715876e-04	2.897019e-02	-2.918220e-02
3             	1.433383e-02	-6.052913e-20	6.198149e-04	-1.549537e-05	2.653728e-02	3.583457e-04	7.151418e-03	7.182408e-03	3.583457e-04	-3.583457e-04	2.684718e-02	-2.622737e-02
4             	1.171276e-02	-2.050109e-20	1.664153e-03	-4.160384e-05	1.950323e-02	2.928190e-04	5.814776e-03	5.897984e-03	2.928190e-04	-2.928190e-04	2.033531e-02	-1.867116e-02
5             	1.021658e-02	-1.600440e-20	2.164989e-03	-5.412473e-05	1.566479e-02	2.554146e-04	5.054167e-03	5.162417e-03	2.554146e-04	-2.554146e-04	1.674729e-02	-1.458230e-02
6             	9.764704e-03	-2.322377e-20	2.486533e-03	-6.216333e-05	1.424691e-02	2.441176e-04	4.820189e-03	4.944515e-03	2.441176e-04	-2.441176e-04	1.549018e-02	-1.300364e-02
7             	9.805811e-03	-2.926659e-20	2.891292e-03	-7.228231e-05	1.365587e-02	2.451453e-04	4.830623e-03	4.975188e-03	2.451453e-04	-2.451453e-04	1.510152e-02	-1.221022e-02
8             	9.523068e-03	-3.072837e-20	3.376092e-03	-8.440230e-05	1.228785e-02	2.380767e-04	4.677132e-03	4.845937e-03	2.380767e-04	-2.380767e-04	1.397589e-02	-1.059980e-02
9             	9.487915e-03	-3.220059e-20	3.852739e-03	-9.631847e-05	1.140909e-02	2.371979e-04	4.647639e-03	4.840276e-03	2.371979e-04	-2.371979e-04	1.333546e-02	-9.482725e-03
10            	9.164683e-03	-3.096335e-20	4.252266e-03	-1.063066e-04	1.011069e-02	2.291171e-04	4.476035e-03	4.688648e-03	2.291171e-04	-2.291171e-04	1.223682e-02	-7.984554e-03
11            	8.773055e-03	-2.978170e-20	4.533762e-03	-1.133440e-04	8.882839e-03	2.193264e-04	4.273183e-03	4.499871e-03	2.193264e-04	-2.193264e-04	1.114972e-02	-6.615958e-03
12            	8.421573e-03	-2.904004e-20	4.708416e-03	-1.177104e-04	7.914077e-03	2.105393e-04	4.093076e-03	4.328497e-03	2.105393e-04	-2.105393e-04	1.026829e-02	-5.559869e-03
13            	8.162269e-03	-2.872965e-20	4.786919e-03	-1.196730e-04	7.289640e-03	2.040567e-04	3.961462e-03	4.200808e-03	2.040567e-04	-2.040567e-04	9.683099e-03	-4.896180e-03
14            	7.976536e-03	-2.863951e-20	4.794909e-03	-1.198727e-04	6.924119e-03	1.994134e-04	3.868395e-03	4.108141e-03	1.994134e-04	-1.994134e-04	9.321574e-03	-4.526665e-03
15            	7.840049e-03	-2.876654e-20	4.752285e-03	-1.188071e-04	6.736968e-03	1.960012e-04	3.801217e-03	4.038832e-03	1.960012e-04	-1.960012e-04	9.113111e-03	-4.360826e-03
16            	7.709306e-03	-2.875105e-20	4.676106e-03	-1.169026e-04	6.613790e-03	1.927327e-04	3.737751e-03	3.971556e-03	1.927327e-04	-1.927327e-04	8.951843e-03	-4.275737e-03
17            	7.622488e-03	-2.855077e-20	4.560894e-03	-1.140224e-04	6.644377e-03	1.905622e-04	3.697221e-03	3.925266e-03	1.905622e-04	-1.905622e-04	8.924824e-03	-4.363930e-03
18            	7.544308e-03	-2.855619e-20	4.438628e-03	-1.109657e-04	6.704371e-03	1.886077e-04	3.661189e-03	3.883120e-03	1.886077e-04	-1.886077e-04	8.923685e-03	-4.485057e-03
19            	7.468876e-03	-2.834116e-20	4.288915e-03	-1.072229e-04	6.814830e-03	1.867219e-04	3.627215e-03	3.841661e-03	1.867219e-04	-1.867219e-04	8.959287e-03	-4.670372e-03
20            	7.417872e-03	-2.828114e-20	4.140874e-03	-1.035219e-04	6.971156e-03	1.854468e-04	3.605414e-03	3.812458e-03	1.854468e-04	-1.854468e-04	9.041593e-03	-4.900718e-03
21            	7.382507e-03	-2.834262e-20	4.004491e-03	-1.001123e-04	7.137929e-03	1.845627e-04	3.591141e-03	3.791366e-03	1.845627e-04	-1.845627e-04	9.140174e-03	-5.135683e-03
22            	7.358814e-03	-2.842550e-20	3.881580e-03	-9.703950e-05	7.303986e-03	1.839704e-04	3.582368e-03	3.776447e-03	1.839704e-04	-1.839704e-04	9.244776e-03	-5.363196e-03
23            	7.355273e-03	-2.855136e-20	3.780616e-03	-9.451541e-05	7.471583e-03	1.838818e-04	3.583121e-03	3.772152e-03	1.838818e-04	-1.838818e-04	9.361891e-03	-5.581275e-03
24            	7.369107e-03	-2.869312e-20	3.707433e-03	-9.268584e-05	7.625244e-03	1.842277e-04	3.591868e-03	3.777240e-03	1.842277e-04	-1.842277e-04	9.478961e-03	-5.771528e-03
25            	7.396308e-03	-2.885352e-20	3.665926e-03	-9.164816e-05	7.750959e-03	1.849077e-04	3.606506e-03	3.789802e-03	1.849077e-04	-1.849077e-04	9.583922e-03	-5.917995e-03
26            	7.426467e-03	-2.904249e-20	3.657224e-03	-9.143060e-05	7.825641e-03	1.856617e-04	3.621803e-03	3.804664e-03	1.856617e-04	-1.856617e-04	9.654253e-03	-5.997029e-03
27            	7.460750e-03	-2.933061e-20	3.679407e-03	-9.198519e-05	7.854692e-03	1.865188e-04	3.638390e-03	3.822360e-03	1.865188e-04	-1.865188e-04	9.694395e-03	-6.014988e-03
28            	7.494572e-03	-2.959588e-20	3.731293e-03	-9.328232e-05	7.830901e-03	1.873643e-04	3.654004e-03	3.840568e-03	1.873643e-04	-1.873643e-04	9.696548e-03	-5.965255e-03
29            	7.527014e-03	-2.986020e-20	3.811970e-03	-9.529926e-05	7.753483e-03	1.881754e-04	3.668208e-03	3.858806e-03	1.881754e-04	-1.881754e-04	9.659468e-03	-5.847498e-03
30            	7.553528e-03	-3.009746e-20	3.916189e-03	-9.790474e-05	7.622259e-03	1.888382e-04	3.678859e-03	3.874669e-03	1.888382e-04	-1.888382e-04	9.580354e-03	-5.664164e-03
31            	7.569327e-03	-3.026920e-20	4.027625e-03	-1.006906e-04	7.456164e-03	1.892332e-04	3.683973e-03	3.885354e-03	1.892332e-04	-1.892332e-04	9.469976e-03	-5.442352e-03
32            	7.573170e-03	-3.040529e-20	4.133974e-03	-1.033493e-04	7.274498e-03	1.893292e-04	3.683236e-03	3.889934e-03	1.893292e-04	-1.893292e-04	9.341485e-03	-5.207511e-03
33            	7.567952e-03	-3.052953e-20	4.225335e-03	-1.056334e-04	7.101277e-03	1.891988e-04	3.678342e-03	3.889609e-03	1.891988e-04	-1.891988e-04	9.213945e-03	-4.988609e-03
34            	7.556679e-03	-3.066222e-20	4.293336e-03	-1.073334e-04	6.956156e-03	1.889170e-04	3.671006e-03	3.885673e-03	1.889170e-04	-1.889170e-04	9.102824e-03	-4.809488e-03
35            	7.545535e-03	-3.088502e-20	4.328665e-03	-1.082166e-04	6.868271e-03	1.886384e-04	3.664551e-03	3.880984e-03	1.886384e-04	-1.886384e-04	9.032604e-03	-4.703939e-03
36            	7.540426e-03	-3.097354e-20	4.322134e-03	-1.080533e-04	6.865086e-03	1.885107e-04	3.662160e-03	3.878267e-03	1.885107e-04	-1.885107e-04	9.026153e-03	-4.704019e-03
37            	7.541678e-03	-3.108581e-20	4.271882e-03	-1.067971e-04	6.949917e-03	1.885420e-04	3.664042e-03	3.877636e-03	1.885420e-04	-1.885420e-04	9.085858e-03	-4.813976e-03
38            	7.553931e-03	-3.118344e-20	4.168318e-03	-1.042080e-04	7.147554e-03	1.888483e-04	3.672757e-03	3.881173e-03	1.888483e-04	-1.888483e-04	9.231713e-03	-5.063395e-03
39            	7.592276e-03	-3.125978e-20	4.014689e-03	-1.003672e-04	7.483399e-03	1.898069e-04	3.695771e-03	3.896505e-03	1.898069e-04	-1.898069e-04	9.490743e-03	-5.476054e-03
40            	7.663919e-03	-3.129086e-20	3.817639e-03	-9.544096e-05	7.960884e-03	1.915980e-04	3.736519e-03	3.927401e-03	1.915980e-04	-1.915980e-04	9.869703e-03	-6.052065e-03
41            	7.776016e-03	-3.126329e-20	3.593967e-03	-8.984917e-05	8.565346e-03	1.944004e-04	3.798159e-03	3.977857e-03	1.944004e-04	-1.944004e-04	1.036233e-02	-6.768362e-03
42            	7.928841e-03	-3.112935e-20	3.358207e-03	-8.395518e-05	9.274219e-03	1.982210e-04	3.880465e-03	4.048376e-03	1.982210e-04	-1.982210e-04	1.095332e-02	-7.595115e-03
43            	8.115421e-03	-3.121597e-20	3.136119e-03	-7.840297e-05	1.003164e-02	2.028855e-04	3.979307e-03	4.136113e-03	2.028855e-04	-2.028855e-04	1.159970e-02	-8.463577e-03
44            	8.325057e-03	-3.131732e-20	2.966098e-03	-7.415244e-05	1.075089e-02	2.081264e-04	4.088376e-03	4.236681e-03	2.081264e-04	-2.081264e-04	1.223394e-02	-9.267845e-03
45            	8.540470e-03	-3.138824e-20	2.885413e-03	-7.213531e-05	1.133406e-02	2.135117e-04	4.198100e-03	4.342370e-03	2.135117e-04	-2.135117e-04	1.277677e-02	-9.891353e-03
46            	8.730422e-03	-3.153249e-20	2.935930e-03	-7.339825e-05	1.164277e-02	2.182605e-04	4.291813e-03	4.438609e-03	2.182605e-04	-2.182605e-04	1.311073e-02	-1.017480e-02
47            	8.857179e-03	-3.166761e-20	3.118014e-03	-7.795036e-05	1.159573e-02	2.214295e-04	4.350639e-03	4.506540e-03	2.214295e-04	-2.214295e-04	1.315473e-02	-1.003672e-02
48            	8.932286e-03	-3.181968e-20	3.431914e-03	-8.579786e-05	1.121017e-02	2.233072e-04	4.380345e-03	4.551941e-03	2.233072e-04	-2.233072e-04	1.292612e-02	-9.494208e-03
49            	8.959136e-03	-3.189691e-20	3.830725e-03	-9.576812e-05	1.056609e-02	2.239784e-04	4.383800e-03	4.575336e-03	2.239784e-04	-2.239784e-04	1.248145e-02	-8.650727e-03
50            	8.933125e-03	-3.178891e-20	4.233605e-03	-1.058401e-04	9.793447e-03	2.233281e-04	4.360723e-03	4.572403e-03	2.233281e-04	-2.233281e-04	1.191025e-02	-7.676644e-03
51            	8.907417e-03	-3.116209e-20	4.503102e-03	-1.125776e-04	9.250479e-03	2.226854e-04	4.341131e-03	4.566286e-03	2.226854e-04	-2.226854e-04	1.150203e-02	-6.998927e-03
52            	8.890401e-03	-3.046794e-20	4.573101e-03	-1.143275e-04	9.073681e-03	2.222600e-04	4.330873e-03	4.559528e-03	2.222600e-04	-2.222600e-04	1.136023e-02	-6.787130e-03
53            	8.869134e-03	-2.967888e-20	4.455908e-03	-1.113977e-04	9.213005e-03	2.217283e-04	4.323169e-03	4.545965e-03	2.217283e-04	-2.217283e-04	1.144096e-02	-6.985051e-03
54            	8.824151e-03	-2.884999e-20	4.194738e-03	-1.048685e-04	9.552928e-03	2.206038e-04	4.307207e-03	4.516944e-03	2.206038e-04	-2.206038e-04	1.165030e-02	-7.455559e-03
55            	8.776607e-03	-2.821049e-20	3.820289e-03	-9.550721e-05	1.008641e-02	2.194152e-04	4.292796e-03	4.483811e-03	2.194152e-04	-2.194152e-04	1.199656e-02	-8.176269e-03
56            	8.792806e-03	-2.780095e-20	3.361298e-03	-8.403245e-05	1.089910e-02	2.198201e-04	4.312371e-03	4.480435e-03	2.198201e-04	-2.198201e-04	1.257974e-02	-9.218447e-03
57            	8.938472e-03	-2.832358e-20	2.874665e-03	-7.186662e-05	1.202871e-02	2.234618e-04	4.397369e-03	4.541103e-03	2.234618e-04	-2.234618e-04	1.346604e-02	-1.059138e-02
58            	9.208182e-03	-2.919751e-20	2.489347e-03	-6.223369e-05	1.324123e-02	2.302045e-04	4.541857e-03	4.666325e-03	2.302045e-04	-2.302045e-04	1.448590e-02	-1.199655e-02
59            	9.515330e-03	-3.012595e-20	2.305825e-03	-5.764562e-05	1.419250e-02	2.378832e-04	4.700019e-03	4.815310e-03	2.378832e-04	-2.378832e-04	1.534541e-02	-1.303959e-02
60            	9.788639e-03	-3.087649e-20	2.353308e-03	-5.883270e-05	1.469220e-02	2.447160e-04	4.835487e-03	4.953152e-03	2.447160e-04	-2.447160e-04	1.586885e-02	-1.351555e-02
61            	9.964612e-03	-3.143854e-20	2.643782e-03	-6.609456e-05	1.458577e-02	2.491153e-04	4.916211e-03	5.048400e-03	2.491153e-04	-2.491153e-04	1.590766e-02	-1.326388e-02
62            	1.006182e-02	-3.198619e-20	3.164948e-03	-7.912370e-05	1.390664e-02	2.515456e-04	4.951788e-03	5.110035e-03	2.515456e-04	-2.515456e-04	1.548911e-02	-1.232417e-02
63            	1.001312e-02	-3.228364e-20	3.824002e-03	-9.560005e-05	1.266278e-02	2.503280e-04	4.910961e-03	5.102161e-03	2.503280e-04	-2.503280e-04	1.457478e-02	-1.075078e-02
64            	9.817279e-03	-3.144388e-20	4.449601e-03	-1.112400e-04	1.114981e-02	2.454320e-04	4.797400e-03	5.019880e-03	2.454320e-04	-2.454320e-04	1.337461e-02	-8.925010e-03
65            	9.592372e-03	-3.013907e-20	4.775606e-03	-1.193902e-04	1.009840e-02	2.398093e-04	4.676796e-03	4.915576e-03	2.398093e-04	-2.398093e-04	1.248621e-02	-7.710602e-03
66            	9.455426e-03	-2.923748e-20	4.772825e-03	-1.193206e-04	9.803100e-03	2.363857e-04	4.608392e-03	4.847034e-03	2.363857e-04	-2.363857e-04	1.218951e-02	-7.416688e-03
67            	9.377038e-03	-2.853996e-20	4.544740e-03	-1.136185e-04	1.001903e-02	2.344260e-04	4.574901e-03	4.802138e-03	2.344260e-04	-2.344260e-04	1.229140e-02	-7.746656e-03
68            	9.270000e-03	-2.782481e-20	4.164472e-03	-1.041118e-04	1.043774e-02	2.317500e-04	4.530888e-03	4.739112e-03	2.317500e-04	-2.317500e-04	1.251997e-02	-8.355502e-03
69            	9.200467e-03	-2.746904e-20	3.660278e-03	-9.150696e-05	1.115262e-02	2.300117e-04	4.508727e-03	4.691741e-03	2.300117e-04	-2.300117e-04	1.298276e-02	-9.322478e-03
70            	9.215413e-03	-2.739722e-20	3.092454e-03	-7.731136e-05	1.215761e-02	2.303853e-04	4.530395e-03	4.685018e-03	2.303853e-04	-2.303853e-04	1.370384e-02	-1.061139e-02
71            	9.403764e-03	-2.760244e-20	2.551019e-03	-6.377546e-05	1.347297e-02	2.350941e-04	4.638107e-03	4.765657e-03	2.350941e-04	-2.350941e-04	1.474848e-02	-1.219746e-02
72            	9.722625e-03	-2.828565e-20	2.171450e-03	-5.428625e-05	1.478334e-02	2.430656e-04	4.807026e-03	4.915599e-03	2.430656e-04	-2.430656e-04	1.586906e-02	-1.369761e-02
73            	1.006303e-02	-2.921675e-20	2.039683e-03	-5.099209e-05	1.572349e-02	2.515758e-04	4.980525e-03	5.082509e-03	2.515758e-04	-2.515758e-04	1.674333e-02	-1.470365e-02
74            	1.034794e-02	-3.011852e-20	2.173866e-03	-5.434666e-05	1.610732e-02	2.586984e-04	5.119621e-03	5.228315e-03	2.586984e-04	-2.586984e-04	1.719425e-02	-1.502038e-02
75            	1.050422e-02	-3.077380e-20	2.585074e-03	-6.462684e-05	1.575876e-02	2.626054e-04	5.187481e-03	5.316734e-03	2.626054e-04	-2.626054e-04	1.705129e-02	-1.446622e-02
76            	1.051231e-02	-3.133911e-20	3.220268e-03	-8.050669e-05	1.470746e-02	2.628077e-04	5.175647e-03	5.336661e-03	2.628077e-04	-2.628077e-04	1.631760e-02	-1.309733e-02
77            	1.036497e-02	-3.161261e-20	3.946644e-03	-9.866611e-05	1.314595e-02	2.591242e-04	5.083818e-03	5.281150e-03	2.591242e-04	-2.591242e-04	1.511927e-02	-1.117262e-02
78            	1.012813e-02	-3.140190e-20	4.570788e-03	-1.142697e-04	1.155130e-02	2.532031e-04	4.949793e-03	5.178332e-03	2.532031e-04	-2.532031e-04	1.383669e-02	-9.265902e-03
79            	9.892305e-03	-3.023760e-20	4.871717e-03	-1.217929e-04	1.051870e-02	2.473076e-04	4.824360e-03	5.067946e-03	2.473076e-04	-2.473076e-04	1.295456e-02	-8.082838e-03
80            	9.751853e-03	-2.945031e-20	4.826416e-03	-1.206604e-04	1.028626e-02	2.437963e-04	4.755266e-03	4.996587e-03	2.437963e-04	-2.437963e-04	1.269947e-02	-7.873055e-03
81            	9.660705e-03	-2.872638e-20	4.553025e-03	-1.138256e-04	1.055236e-02	2.415176e-04	4.716527e-03	4.944178e-03	2.415176e-04	-2.415176e-04	1.282887e-02	-8.275845e-03
82            	9.528627e-03	-2.795986e-20	4.126991e-03	-1.031748e-04	1.099518e-02	2.382157e-04	4.661139e-03	4.867488e-03	2.382157e-04	-2.382157e-04	1.305867e-02	-8.931682e-03
83            	9.426950e-03	-2.753381e-20	3.545705e-03	-8.864261e-05	1.177571e-02	2.356738e-04	4.624833e-03	4.802118e-03	2.356738e-04	-2.356738e-04	1.354856e-02	-1.000286e-02
84            	9.476381e-03	-2.758189e-20	2.926476e-03	-7.316191e-05	1.294120e-02	2.369095e-04	4.665029e-03	4.811353e-03	2.369095e-04	-2.369095e-04	1.440444e-02	-1.147796e-02
85            	9.657615e-03	-2.775880e-20	2.378504e-03	-5.946261e-05	1.425476e-02	2.414404e-04	4.769345e-03	4.888270e-03	2.414404e-04	-2.414404e-04	1.544401e-02	-1.306551e-02
86            	9.974367e-03	-2.840353e-20	2.004042e-03	-5.010106e-05	1.555292e-02	2.493592e-04	4.937083e-03	5.037285e-03	2.493592e-04	-2.493592e-04	1.655494e-02	-1.455090e-02
87            	1.031658e-02	-2.935305e-20	1.885271e-03	-4.713178e-05	1.647734e-02	2.579145e-04	5.111159e-03	5.205422e-03	2.579145e-04	-2.579145e-04	1.741998e-02	-1.553471e-02
88            	1.059498e-02	-3.027468e-20	2.039751e-03	-5.099378e-05	1.681849e-02	2.648744e-04	5.246495e-03	5.348482e-03	2.648744e-04	-2.648744e-04	1.783837e-02	-1.579861e-02
89            	1.074135e-02	-3.095840e-20	2.478486e-03	-6.196216e-05	1.640899e-02	2.685336e-04	5.308711e-03	5.432635e-03	2.685336e-04	-2.685336e-04	1.764823e-02	-1.516974e-02
90            	1.073422e-02	-3.154165e-20	3.147669e-03	-7.869174e-05	1.527484e-02	2.683554e-04	5.288416e-03	5.445800e-03	2.683554e-04	-2.683554e-04	1.684867e-02	-1.370100e-02
91            	1.056513e-02	-3.181247e-20	3.906140e-03	-9.765349e-05	1.361840e-02	2.641282e-04	5.184911e-03	5.380218e-03	2.641282e-04	-2.641282e-04	1.557147e-02	-1.166533e-02
92            	1.030890e-02	-3.163407e-20	4.572957e-03	-1.143239e-04	1.191121e-02	2.577226e-04	5.040128e-03	5.268775e-03	2.577226e-04	-2.577226e-04	1.419769e-02	-9.624736e-03
93            	1.004935e-02	-3.032576e-20	4.916565e-03	-1.229141e-04	1.075454e-02	2.512336e-04	4.901759e-03	5.147587e-03	2.512336e-04	-2.512336e-04	1.321283e-02	-8.296260e-03
94            	9.897056e-03	-2.953361e-20	4.895904e-03	-1.223976e-04	1.045323e-02	2.474264e-04	4.826130e-03	5.070926e-03	2.474264e-04	-2.474264e-04	1.290119e-02	-8.005281e-03
95            	9.803352e-03	-2.875555e-20	4.634886e-03	-1.158721e-04	1.068826e-02	2.450838e-04	4.785804e-03	5.017548e-03	2.450838e-04	-2.450838e-04	1.300570e-02	-8.370818e-03
96            	9.681701e-03	-2.793368e-20	4.199429e-03	-1.049857e-04	1.116292e-02	2.420425e-04	4.735865e-03	4.945836e-03	2.420425e-04	-2.420425e-04	1.326263e-02	-9.063201e-03
97            	9.578884e-03	-2.751549e-20	3.640677e-03	-9.101693e-05	1.190071e-02	2.394721e-04	4.698425e-03	4.880459e-03	2.394721e-04	-2.394721e-04	1.372105e-02	-1.008037e-02
98            	9.543919e-03	-2.748486e-20	3.008470e-03	-7.521175e-05	1.291831e-02	2.385980e-04	4.696748e-03	4.847171e-03	2.385980e-04	-2.385980e-04	1.442255e-02	-1.141408e-02
99            	9.707032e-03	-2.767323e-20	2.405880e-03	-6.014700e-05	1.428886e-02	2.426758e-04	4.793369e-03	4.913663e-03	2.426758e-04	-2.426758e-04	1.549180e-02	-1.308592e-02
100           	1.001432e-02	-2.830260e-20	1.979644e-03	-4.949111e-05	1.565789e-02	2.503581e-04	4.957671e-03	5.056653e-03	2.503581e-04	-2.503581e-04	1.664772e-02	-1.466807e-02
101           	1.036343e-02	-2.926961e-20	1.811513e-03	-4.528782e-05	1.668142e-02	2.590858e-04	5.136427e-03	5.227003e-03	2.590858e-04	-2.590858e-04	1.758718e-02	-1.577566e-02
102           	1.066784e-02	-3.021862e-20	1.916188e-03	-4.790471e-05	1.716088e-02	2.666961e-04	5.286018e-03	5.381827e-03	2.666961e-04	-2.666961e-04	1.811898e-02	-1.620279e-02
103           	1.084585e-02	-3.091107e-20	2.309708e-03	-5.774271e-05	1.689672e-02	2.711462e-04	5.365182e-03	5.480667e-03	2.711462e-04	-2.711462e-04	1.805158e-02	-1.574187e-02
104           	1.086186e-02	-3.153002e-20	2.955558e-03	-7.388895e-05	1.585893e-02	2.715465e-04	5.357041e-03	5.504819e-03	2.715465e-04	-2.715465e-04	1.733671e-02	-1.438115e-02
105           	1.071828e-02	-3.190018e-20	3.732184e-03	-9.330461e-05	1.423277e-02	2.679569e-04	5.265834e-03	5.452443e-03	2.679569e-04	-2.679569e-04	1.609886e-02	-1.236668e-02
106           	1.044952e-02	-3.190152e-20	4.459109e-03	-1.114777e-04	1.239988e-02	2.612381e-04	5.113283e-03	5.336239e-03	2.612381e-04	-2.612381e-04	1.462944e-02	-1.017033e-02
107           	1.016827e-02	-3.058000e-20	4.892541e-03	-1.223135e-04	1.104013e-02	2.542068e-04	4.961823e-03	5.206450e-03	2.542068e-04	-2.542068e-04	1.348640e-02	-8.593862e-03
108           	9.995135e-03	-2.965631e-20	4.940840e-03	-1.235210e-04	1.057559e-02	2.498784e-04	4.874047e-03	5.121089e-03	2.498784e-04	-2.498784e-04	1.304601e-02	-8.105172e-03
109           	9.891205e-03	-2.890762e-20	4.731420e-03	-1.182855e-04	1.069943e-02	2.472801e-04	4.827317e-03	5.063888e-03	2.472801e-04	-2.472801e-04	1.306514e-02	-8.333718e-03
110           	9.784559e-03	-2.809293e-20	4.337032e-03	-1.084258e-04	1.113097e-02	2.446140e-04	4.783854e-03	5.000705e-03	2.446140e-04	-2.446140e-04	1.329949e-02	-8.962457e-03
111           	9.653529e-03	-2.751466e-20	3.798361e-03	-9.495902e-05	1.177262e-02	2.413382e-04	4.731805e-03	4.921723e-03	2.413382e-04	-2.413382e-04	1.367180e-02	-9.873436e-03
112           	9.603325e-03	-2.750628e-20	3.199492e-03	-7.998729e-05	1.269851e-02	2.400831e-04	4.721675e-03	4.881650e-03	2.400831e-04	-2.400831e-04	1.429825e-02	-1.109876e-02
113           	9.679936e-03	-2.756662e-20	2.583401e-03	-6.458502e-05	1.391679e-02	2.419984e-04	4.775383e-03	4.904553e-03	2.419984e-04	-2.419984e-04	1.520849e-02	-1.262509e-02
114           	9.937451e-03	-2.818101e-20	2.070954e-03	-5.177386e-05	1.533076e-02	2.484363e-04	4.916952e-03	5.020499e-03	2.484363e-04	-2.484363e-04	1.636623e-02	-1.429528e-02
115           	1.030100e-02	-2.907360e-20	1.804150e-03	-4.510374e-05	1.654881e-02	2.575251e-04	5.105399e-03	5.195606e-03	2.575251e-04	-2.575251e-04	1.745089e-02	-1.564674e-02
116           	1.064196e-02	-2.998915e-20	1.820292e-03	-4.550730e-05	1.725157e-02	2.660489e-04	5.275471e-03	5.366485e-03	2.660489e-04	-2.660489e-04	1.816172e-02	-1.634142e-02
117           	1.086999e-02	-3.070175e-20	2.134757e-03	-5.336892e-05	1.722375e-02	2.717498e-04	5.381627e-03	5.488364e-03	2.717498e-04	-2.717498e-04	1.829113e-02	-1.615637e-02
118           	1.093959e-02	-3.140583e-20	2.729752e-03	-6.824379e-05	1.639114e-02	2.734899e-04	5.401553e-03	5.538041e-03	2.734899e-04	-2.734899e-04	1.775602e-02	-1.502627e-02
119           	1.083797e-02	-3.191620e-20	3.509173e-03	-8.772933e-05	1.485804e-02	2.709491e-04	5.331254e-03	5.506712e-03	2.709491e-04	-2.709491e-04	1.661262e-02	-1.310345e-02
120           	1.056694e-02	-3.203596e-20	4.288617e-03	-1.072154e-04	1.293882e-02	2.641735e-04	5.176255e-03	5.390686e-03	2.641735e-04	-2.641735e-04	1.508313e-02	-1.079451e-02
121           	1.027034e-02	-3.096607e-20	4.831910e-03	-1.207977e-04	1.135695e-02	2.567586e-04	5.014374e-03	5.255969e-03	2.567586e-04	-2.567586e-04	1.377290e-02	-8.940993e-03
122           	1.006077e-02	-2.996714e-20	4.981152e-03	-1.245288e-04	1.064203e-02	2.515192e-04	4.905855e-03	5.154913e-03	2.515192e-04	-2.515192e-04	1.313260e-02	-8.151451e-03
123           	9.933210e-03	-2.925118e-20	4.824255e-03	-1.206064e-04	1.063142e-02	2.483302e-04	4.845999e-03	5.087211e-03	2.483302e-04	-2.483302e-04	1.304355e-02	-8.219296e-03
124           	9.816063e-03	-2.845727e-20	4.476446e-03	-1.119112e-04	1.096720e-02	2.454016e-04	4.796120e-03	5.019943e-03	2.454016e-04	-2.454016e-04	1.320543e-02	-8.728982e-03
125           	9.686865e-03	-2.769853e-20	3.967083e-03	-9.917708e-05	1.155396e-02	2.421716e-04	4.744256e-03	4.942610e-03	2.421716e-04	-2.421716e-04	1.353750e-02	-9.570421e-03
126           	9.587240e-03	-2.751700e-20	3.326519e-03	-8.316297e-05	1.244638e-02	2.396810e-04	4.710457e-03	4.876783e-03	2.396810e-04	-2.396810e-04	1.410964e-02	-1.078312e-02
127           	9.659580e-03	-2.761829e-20	2.675477e-03	-6.688692e-05	1.371799e-02	2.414895e-04	4.762903e-03	4.896677e-03	2.414895e-04	-2.414895e-04	1.505572e-02	-1.238025e-02
128           	9.900941e-03	-2.785930e-20	2.158155e-03	-5.395388e-05	1.510235e-02	2.475235e-04	4.896517e-03	5.004424e-03	2.475235e-04	-2.475235e-04	1.618143e-02	-1.402328e-02
129           	1.022681e-02	-2.881046e-20	1.846285e-03	-4.615713e-05	1.631794e-02	2.556702e-04	5.067247e-03	5.159561e-03	2.556702e-04	-2.556702e-04	1.724108e-02	-1.539480e-02
130           	1.055552e-02	-2.980920e-20	1.793943e-03	-4.484857e-05	1.710842e-02	2.638879e-04	5.232910e-03	5.322607e-03	2.638879e-04	-2.638879e-04	1.800539e-02	-1.621145e-02
131           	1.081088e-02	-3.070902e-20	2.016786e-03	-5.041964e-05	1.729134e-02	2.702720e-04	5.355020e-03	5.455860e-03	2.702720e-04	-2.702720e-04	1.829973e-02	-1.628295e-02
132           	1.094399e-02	-3.141926e-20	2.535347e-03	-6.338369e-05	1.672090e-02	2.735997e-04	5.408610e-03	5.535378e-03	2.735997e-04	-2.735997e-04	1.798858e-02	-1.545323e-02
133           	1.090968e-02	-3.196859e-20	3.286814e-03	-8.217034e-05	1.538513e-02	2.727420e-04	5.372669e-03	5.537010e-03	2.727420e-04	-2.727420e-04	1.702854e-02	-1.374173e-02
134           	1.068144e-02	-3.209628e-20	4.095958e-03	-1.023990e-04	1.351221e-02	2.670359e-04	5.238319e-03	5.443117e-03	2.670359e-04	-2.670359e-04	1.556019e-02	-1.146423e-02
135           	1.036971e-02	-3.116530e-20	4.745023e-03	-1.186256e-04	1.171844e-02	2.592427e-04	5.066227e-03	5.303479e-03	2.592427e-04	-2.592427e-04	1.409095e-02	-9.345925e-03
136           	1.011426e-02	-3.006531e-20	5.000533e-03	-1.250133e-04	1.072365e-02	2.528564e-04	4.932115e-03	5.182142e-03	2.528564e-04	-2.528564e-04	1.322391e-02	-8.223381e-03
137           	9.969151e-03	-2.935300e-20	4.912285e-03	-1.228071e-04	1.055741e-02	2.492288e-04	4.861768e-03	5.107383e-03	2.492288e-04	-2.492288e-04	1.301356e-02	-8.101271e-03
138           	9.868848e-03	-2.856304e-20	4.598915e-03	-1.149729e-04	1.086766e-02	2.467212e-04	4.819451e-03	5.049397e-03	2.467212e-04	-2.467212e-04	1.316712e-02	-8.568203e-03
139           	9.729994e-03	-2.775306e-20	4.120410e-03	-1.030103e-04	1.138174e-02	2.432498e-04	4.761987e-03	4.968007e-03	2.432498e-04	-2.432498e-04	1.344195e-02	-9.321537e-03
140           	9.610323e-03	-2.742282e-20	3.492022e-03	-8.730056e-05	1.220812e-02	2.402581e-04	4.717861e-03	4.892462e-03	2.402581e-04	-2.402581e-04	1.395413e-02	-1.046211e-02
141           	9.639080e-03	-2.755179e-20	2.829736e-03	-7.074341e-05	1.340932e-02	2.409770e-04	4.748797e-03	4.890283e-03	2.409770e-04	-2.409770e-04	1.482418e-02	-1.199445e-02
142           	9.825125e-03	-2.804476e-20	2.244578e-03	-5.611445e-05	1.479901e-02	2.456281e-04	4.856448e-03	4.968677e-03	2.456281e-04	-2.456281e-04	1.592130e-02	-1.367672e-02
143           	1.015287e-02	-2.881931e-20	1.865535e-03	-4.663838e-05	1.613003e-02	2.538218e-04	5.029797e-03	5.123074e-03	2.538218e-04	-2.538218e-04	1.706279e-02	-1.519726e-02
144           	1.050361e-02	-2.961717e-20	1.753952e-03	-4.384879e-05	1.706371e-02	2.625903e-04	5.207956e-03	5.295654e-03	2.625903e-04	-2.625903e-04	1.794068e-02	-1.618673e-02
145           	1.080446e-02	-3.054893e-20	1.927441e-03	-4.818603e-05	1.742468e-02	2.701114e-04	5.354042e-03	5.450414e-03	2.701114e-04	-2.701114e-04	1.838840e-02	-1.646096e-02
146           	1.095992e-02	-3.124588e-20	2.400816e-03	-6.002040e-05	1.697708e-02	2.739981e-04	5.419941e-03	5.539982e-03	2.739981e-04	-2.739981e-04	1.817749e-02	-1.577667e-02
147           	1.093452e-02	-3.179507e-20	3.112896e-03	-7.782239e-05	1.573470e-02	2.733630e-04	5.389437e-03	5.545081e-03	2.733630e-04	-2.733630e-04	1.729115e-02	-1.417825e-02
148           	1.072935e-02	-3.201154e-20	3.912049e-03	-9.780123e-05	1.393627e-02	2.682339e-04	5.266876e-03	5.462478e-03	2.682339e-04	-2.682339e-04	1.589229e-02	-1.198024e-02
149           	1.042545e-02	-3.144927e-20	4.614796e-03	-1.153699e-04	1.207035e-02	2.606364e-04	5.097358e-03	5.328097e-03	2.606364e-04	-2.606364e-04	1.437775e-02	-9.762956e-03
150           	1.015457e-02	-3.032106e-20	4.965658e-03	-1.241415e-04	1.087603e-02	2.538642e-04	4.953143e-03	5.201426e-03	2.538642e-04	-2.538642e-04	1.335885e-02	-8.393196e-03
151           	9.999411e-03	-2.957744e-20	4.944051e-03	-1.236013e-04	1.056957e-02	2.499853e-04	4.876104e-03	5.123307e-03	2.499853e-04	-2.499853e-04	1.304160e-02	-8.097546e-03
152           	9.894444e-03	-2.880877e-20	4.686009e-03	-1.171502e-04	1.077471e-02	2.473611e-04	4.830072e-03	5.064372e-03	2.473611e-04	-2.473611e-04	1.311772e-02	-8.431709e-03
153           	9.773476e-03	-2.796064e-20	4.237306e-03	-1.059326e-04	1.126957e-02	2.443369e-04	4.780805e-03	4.992671e-03	2.443369e-04	-2.443369e-04	1.338822e-02	-9.150916e-03
154           	9.665597e-03	-2.754098e-20	3.658964e-03	-9.147411e-05	1.202981e-02	2.416399e-04	4.741324e-03	4.924273e-03	2.416399e-04	-2.416399e-04	1.385929e-02	-1.020033e-02
155           	9.611546e-03	-2.751486e-20	3.007254e-03	-7.518135e-05	1.304378e-02	2.402887e-04	4.730592e-03	4.880954e-03	2.402887e-04	-2.402887e-04	1.454741e-02	-1.154015e-02
156           	9.749545e-03	-2.771035e-20	2.382282e-03	-5.955704e-05	1.440466e-02	2.437386e-04	4.815216e-03	4.934330e-03	2.437386e-04	-2.437386e-04	1.559580e-02	-1.321352e-02
157           	1.006029e-02	-2.839452e-20	1.932104e-03	-4.830260e-05	1.582319e-02	2.515072e-04	4.981841e-03	5.078446e-03	2.515072e-04	-2.515072e-04	1.678924e-02	-1.485714e-02
158           	1.042315e-02	-2.935135e-20	1.752928e-03	-4.382321e-05	1.689382e-02	2.605788e-04	5.167753e-03	5.255400e-03	2.605788e-04	-2.605788e-04	1.777029e-02	-1.601736e-02
159           	1.073343e-02	-3.027511e-20	1.854827e-03	-4.637068e-05	1.739111e-02	2.683357e-04	5.320343e-03	5.413084e-03	2.683357e-04	-2.683357e-04	1.831852e-02	-1.646370e-02
160           	1.092138e-02	-3.099041e-20	2.256902e-03	-5.642254e-05	1.713020e-02	2.730345e-04	5.404268e-03	5.517113e-03	2.730345e-04	-2.730345e-04	1.825865e-02	-1.600175e-02
161           	1.092105e-02	-3.158133e-20	2.904645e-03	-7.261612e-05	1.605935e-02	2.730262e-04	5.387907e-03	5.533139e-03	2.730262e-04	-2.730262e-04	1.751167e-02	-1.460703e-02
162           	1.077047e-02	-3.195809e-20	3.687817e-03	-9.219542e-05	1.441241e-02	2.692618e-04	5.293041e-03	5.477432e-03	2.692618e-04	-2.692618e-04	1.625632e-02	-1.256850e-02
163           	1.049751e-02	-3.198399e-20	4.430067e-03	-1.107517e-04	1.254684e-02	2.624378e-04	5.138003e-03	5.359507e-03	2.624378e-04	-2.624378e-04	1.476188e-02	-1.033181e-02
164           	1.021112e-02	-3.063956e-20	4.891259e-03	-1.222815e-04	1.112832e-02	2.552781e-04	4.983280e-03	5.227843e-03	2.552781e-04	-2.552781e-04	1.357395e-02	-8.682688e-03
165           	1.003099e-02	-2.969664e-20	4.961673e-03	-1.240418e-04	1.061131e-02	2.507748e-04	4.891454e-03	5.139538e-03	2.507748e-04	-2.507748e-04	1.309215e-02	-8.130473e-03
166           	9.925853e-03	-2.893871e-20	4.763523e-03	-1.190881e-04	1.071281e-02	2.481463e-04	4.843838e-03	5.082014e-03	2.481463e-04	-2.481463e-04	1.309457e-02	-8.331046e-03
167           	9.819954e-03	-2.812852e-20	4.375765e-03	-1.093941e-04	1.113417e-02	2.454989e-04	4.800583e-03	5.019371e-03	2.454989e-04	-2.454989e-04	1.332205e-02	-8.946285e-03