# Force coefficients
# dragDir     : (1.000000e+00 0.000000e+00 0.000000e+00)
# sideDir     : (0.000000e+00 0.000000e+00 -1.000000e+00)
# liftDir     : (0.000000e+00 1.000000e+00 0.000000e+00)
# rollAxis    : (1.000000e+00 0.000000e+00 0.000000e+00)
# pitchAxis   : (0.000000e+00 0.000000e+00 -1.000000e+00)
# yawAxis     : (0.000000e+00 1.000000e+00 0.000000e+00)
# magUInf     : 6.000000e-02
# lRef        : 1.000000e-01
# Aref        : 1.000000e-01
# CofR        : (0.000000e+00 0.000000e+00 0.000000e+00)
#
# Time        	Cd            	Cs            	Cl            	CmRoll        	CmPitch       	CmYaw         	Cd(f)         	Cd(r)         	Cs(f)         	Cs(r)         	Cl(f)         	Cl(r)         
1             	2.191124e-03	1.509733e-20	-9.580845e-04	2.395211e-05	6.123444e-03	5.477809e-05	1.119514e-03	1.071610e-03	5.477809e-05	-5.477809e-05	5.644402e-03	-6.602487e-03
2             	1.122502e-02	5.397356e-21	-2.315010e-03	5.787524e-05	2.576507e-02	2.806256e-04	5.670388e-03	5.554637e-03	2.806256e-04	-2.806256e-04	2.460756e-02	-2.692257e-02
3             	1.210893e-02	8.226249e-21	5.424348e-04	-1.356087e-05	2.163695e-02	3.027233e-04	6.040906e-03	6.068027e-03	3.027233e-04	-3.027233e-04	2.190817e-02	-2.136573e-02
4             	1.165303e-02	3.224151e-21	1.932618e-03	-4.831546e-05	1.807086e-02	2.913257e-04	5.778198e-03	5.874829e-03	2.913257e-04	-2.913257e-04	1.903717e-02	-1.710456e-02
5             	1.144054e-02	-4.739516e-21	2.220603e-03	-5.551507e-05	1.719664e-02	2.860136e-04	5.664756e-03	5.775786e-03	2.860136e-04	-2.860136e-04	1.830694e-02	-1.608633e-02
6             	1.140703e-02	-7.985053e-21	2.000942e-03	-5.002355e-05	1.757983e-02	2.851759e-04	5.653494e-03	5.753541e-03	2.851759e-04	-2.851759e-04	1.858030e-02	-1.657936e-02
7             	1.169365e-02	-9.513697e-21	1.853131e-03	-4.632826e-05	1.839754e-02	2.923413e-04	5.800498e-03	5.893154e-03	2.923413e-04	-2.923413e-04	1.932411e-02	-1.747098e-02
8             	1.199111e-02	-1.035741e-20	2.007469e-03	-5.018672e-05	1.864426e-02	2.997777e-04	5.945366e-03	6.045740e-03	2.997777e-04	-2.997777e-04	1.964799e-02	-1.764052e-02
9             	1.223170e-02	-7.285367e-21	2.202528e-03	-5.506321e-05	1.870311e-02	3.057924e-04	6.060784e-03	6.170911e-03	3.057924e-04	-3.057924e-04	1.980438e-02	-1.760185e-02
10            	1.245445e-02	-6.472179e-21	2.381086e-03	-5.952714e-05	1.875605e-02	3.113613e-04	6.167698e-03	6.286752e-03	3.113613e-04	-3.113613e-04	1.994659e-02	-1.756550e-02
11            	1.282918e-02	-5.200610e-21	2.256201e-03	-5.640503e-05	1.970361e-02	3.207295e-04	6.358185e-03	6.470995e-03	3.207295e-04	-3.207295e-04	2.083171e-02	-1.857551e-02
12            	1.294565e-02	-7.516346e-21	2.082192e-03	-5.205481e-05	2.025898e-02	3.236413e-04	6.420771e-03	6.524881e-03	3.236413e-04	-3.236413e-04	2.130008e-02	-1.921789e-02
13            	1.292707e-02	-1.033881e-20	1.772918e-03	-4.432294e-05	2.084211e-02	3.231767e-04	6.419210e-03	6.507856e-03	3.231767e-04	-3.231767e-04	2.172857e-02	-1.995565e-02
14            	1.276662e-02	-1.237806e-20	1.384511e-03	-3.461277e-05	2.132480e-02	3.191656e-04	6.348699e-03	6.417924e-03	3.191656e-04	-3.191656e-04	2.201705e-02	-2.063254e-02
15            	1.252664e-02	-1.312657e-20	1.115981e-03	-2.789953e-05	2.143045e-02	3.131659e-04	6.235418e-03	6.291217e-03	3.131659e-04	-3.131659e-04	2.198844e-02	-2.087246e-02
16            	1.221468e-02	-1.379447e-20	8.258445e-04	-2.064611e-05	2.144180e-02	3.053669e-04	6.086692e-03	6.127984e-03	3.053669e-04	-3.053669e-04	2.185472e-02	-2.102888e-02
17            	1.182294e-02	-1.079119e-20	5.738489e-04	-1.434622e-05	2.121577e-02	2.955734e-04	5.897122e-03	5.925814e-03	2.955734e-04	-2.955734e-04	2.150269e-02	-2.092884e-02
18            	1.160711e-02	-8.210801e-21	4.638957e-04	-1.159739e-05	2.102433e-02	2.901778e-04	5.791959e-03	5.815154e-03	2.901778e-04	-2.901778e-04	2.125628e-02	-2.079239e-02
19            	1.142071e-02	-8.584614e-21	4.277726e-04	-1.069431e-05	2.072865e-02	2.855178e-04	5.699663e-03	5.721051e-03	2.855178e-04	-2.855178e-04	2.094254e-02	-2.051476e-02
20            	1.146540e-02	-9.537131e-21	2.998766e-04	-7.496915e-06	2.107421e-02	2.866349e-04	5.725202e-03	5.740196e-03	2.866349e-04	-2.866349e-04	2.122415e-02	-2.092428e-02
21            	1.157153e-02	-1.222683e-20	1.590383e-04	-3.975957e-06	2.157498e-02	2.892883e-04	5.781789e-03	5.789741e-03	2.892883e-04	-2.892883e-04	2.165450e-02	-2.149546e-02
22            	1.170472e-02	-1.481204e-20	-1.024090e-05	2.560224e-07	2.219853e-02	2.926181e-04	5.852618e-03	5.852106e-03	2.926181e-04	-2.926181e-04	2.219341e-02	-2.220366e-02
23            	1.185805e-02	-1.722031e-20	-2.541567e-04	6.353918e-06	2.301084e-02	2.964512e-04	5.935378e-03	5.922670e-03	2.964512e-04	-2.964512e-04	2.288377e-02	-2.313792e-02
24            	1.204901e-02	-1.687779e-20	-5.861877e-04	1.465469e-05	2.407299e-02	3.012252e-04	6.039159e-03	6.009850e-03	3.012252e-04	-3.012252e-04	2.377990e-02	-2.436608e-02
25            	1.220749e-02	-1.699304e-20	-8.932174e-04	2.233043e-05	2.502542e-02	3.051872e-04	6.126074e-03	6.081413e-03	3.051872e-04	-3.051872e-04	2.457881e-02	-2.547202e-02
26            	1.232848e-02	-1.827390e-20	-1.138356e-03	2.845890e-05	2.577789e-02	3.082120e-04	6.192699e-03	6.135781e-03	3.082120e-04	-3.082120e-04	2.520871e-02	-2.634707e-02
27            	1.238638e-02	-1.770266e-20	-1.238551e-03	3.096379e-05	2.611584e-02	3.096596e-04	6.224155e-03	6.162228e-03	3.096596e-04	-3.096596e-04	2.549657e-02	-2.673512e-02
28            	1.238302e-02	-1.568076e-20	-1.150337e-03	2.875843e-05	2.595052e-02	3.095754e-04	6.220267e-03	6.162750e-03	3.095754e-04	-3.095754e-04	2.537535e-02	-2.652568e-02
29            	1.233136e-02	-1.357035e-20	-8.444017e-04	2.111004e-05	2.524989e-02	3.082840e-04	6.186790e-03	6.144570e-03	3.082840e-04	-3.082840e-04	2.482769e-02	-2.567209e-02
30            	1.221227e-02	-1.139066e-20	-3.340422e-04	8.351055e-06	2.400114e-02	3.053067e-04	6.114485e-03	6.097783e-03	3.053067e-04	-3.053067e-04	2.383412e-02	-2.416816e-02
31            	1.207700e-02	-9.295099e-21	3.891106e-04	-9.727766e-06	2.229019e-02	3.019251e-04	6.028773e-03	6.048229e-03	3.019251e-04	-3.019251e-04	2.248475e-02	-2.209564e-02
32            	1.194770e-02	-7.025735e-21	1.244889e-03	-3.112223e-05	2.031718e-02	2.986924e-04	5.942726e-03	6.004971e-03	2.986924e-04	-2.986924e-04	2.093963e-02	-1.969474e-02
33            	1.187575e-02	-4.492005e-21	2.081920e-03	-5.204801e-05	1.848787e-02	2.968938e-04	5.885828e-03	5.989924e-03	2.968938e-04	-2.968938e-04	1.952883e-02	-1.744691e-02
34            	1.185794e-02	-6.619166e-21	2.863081e-03	-7.157701e-05	1.687354e-02	2.964485e-04	5.857394e-03	6.000548e-03	2.964485e-04	-2.964485e-04	1.830508e-02	-1.544200e-02
35            	1.187639e-02	-8.030857e-21	3.464560e-03	-8.661400e-05	1.569476e-02	2.969097e-04	5.851580e-03	6.024808e-03	2.969097e-04	-2.969097e-04	1.742704e-02	-1.396248e-02
36            	1.188244e-02	-9.084189e-21	3.762321e-03	-9.405803e-05	1.510268e-02	2.970610e-04	5.847162e-03	6.035278e-03	2.970610e-04	-2.970610e-04	1.698384e-02	-1.322152e-02
37            	1.190742e-02	-9.690023e-21	3.762467e-03	-9.406168e-05	1.514195e-02	2.976856e-04	5.859650e-03	6.047774e-03	2.976856e-04	-2.976856e-04	1.702318e-02	-1.326072e-02
38            	1.186183e-02	-9.893217e-21	3.628375e-03	-9.070937e-05	1.528759e-02	2.965457e-04	5.840204e-03	6.021623e-03	2.965457e-04	-2.965457e-04	1.710178e-02	-1.347340e-02
39            	1.181115e-02	-8.819605e-21	3.353714e-03	-8.384286e-05	1.565549e-02	2.952788e-04	5.821733e-03	5.989418e-03	2.952788e-04	-2.952788e-04	1.733235e-02	-1.397863e-02
40            	1.181271e-02	-6.983591e-21	2.778165e-03	-6.945412e-05	1.668886e-02	2.953177e-04	5.836899e-03	5.975808e-03	2.953177e-04	-2.953177e-04	1.807794e-02	-1.529978e-02
41            	1.197126e-02	-5.135058e-21	1.967740e-03	-4.919350e-05	1.848174e-02	2.992815e-04	5.936436e-03	6.034823e-03	2.992815e-04	-2.992815e-04	1.946561e-02	-1.749787e-02
42            	1.225513e-02	-6.819584e-21	8.053724e-04	-2.013431e-05	2.122299e-02	3.063781e-04	6.107428e-03	6.147697e-03	3.063781e-04	-3.063781e-04	2.162568e-02	-2.082031e-02
43            	1.266001e-02	-1.121920e-20	-7.176699e-04	1.794175e-05	2.495250e-02	3.165003e-04	6.347949e-03	6.312065e-03	3.165003e-04	-3.165003e-04	2.459366e-02	-2.531133e-02
44            	1.310898e-02	-1.865101e-20	-2.442688e-03	6.106719e-05	2.922577e-02	3.277245e-04	6.615556e-03	6.493422e-03	3.277245e-04	-3.277245e-04	2.800442e-02	-3.044711e-02
45            	1.356799e-02	-2.254973e-20	-4.174849e-03	1.043712e-04	3.359320e-02	3.391998e-04	6.888368e-03	6.679625e-03	3.391998e-04	-3.391998e-04	3.150577e-02	-3.568062e-02
46            	1.399851e-02	-2.542287e-20	-5.642870e-03	1.410718e-04	3.744279e-02	3.499628e-04	7.140328e-03	6.858184e-03	3.499628e-04	-3.499628e-04	3.462136e-02	-4.026423e-02
47            	1.445241e-02	-2.964402e-20	-6.611707e-03	1.652927e-04	4.044241e-02	3.613102e-04	7.391498e-03	7.060912e-03	3.613102e-04	-3.613102e-04	3.713655e-02	-4.374826e-02
48            	1.479296e-02	-3.275194e-20	-6.770587e-03	1.692647e-04	4.165041e-02	3.698241e-04	7.565746e-03	7.227217e-03	3.698241e-04	-3.698241e-04	3.826512e-02	-4.503571e-02
49            	1.481637e-02	-3.041597e-20	-5.972148e-03	1.493037e-04	4.031666e-02	3.704092e-04	7.557488e-03	7.258881e-03	3.704092e-04	-3.704092e-04	3.733058e-02	-4.330273e-02
50            	1.457621e-02	-2.887154e-20	-4.052727e-03	1.013182e-04	3.617188e-02	3.644052e-04	7.389422e-03	7.186786e-03	3.644052e-04	-3.644052e-04	3.414551e-02	-3.819824e-02
51            	1.424851e-02	-2.546981e-20	-1.520021e-03	3.800052e-05	3.055279e-02	3.562128e-04	7.162256e-03	7.086255e-03	3.562128e-04	-3.562128e-04	2.979278e-02	-3.131280e-02
52            	1.384346e-02	-2.334658e-20	9.420333e-04	-2.355083e-05	2.490565e-02	3.460865e-04	6.898179e-03	6.945280e-03	3.460865e-04	-3.460865e-04	2.537666e-02	-2.443463e-02
53            	1.340506e-02	-2.279841e-20	2.763192e-03	-6.907981e-05	2.045389e-02	3.351265e-04	6.633451e-03	6.771610e-03	3.351265e-04	-3.351265e-04	2.183549e-02	-1.907229e-02
54            	1.292451e-02	-2.228222e-20	4.103929e-03	-1.025982e-04	1.681600e-02	3.231127e-04	6.359655e-03	6.564852e-03	3.231127e-04	-3.231127e-04	1.886796e-02	-1.476403e-02
55            	1.245324e-02	-1.882845e-20	4.978979e-03	-1.244745e-04	1.404608e-02	3.113309e-04	6.102144e-03	6.351093e-03	3.113309e-04	-3.113309e-04	1.653557e-02	-1.155659e-02
56            	1.208978e-02	-1.553570e-20	5.314287e-03	-1.328572e-04	1.250410e-02	3.022446e-04	5.912035e-03	6.177750e-03	3.022446e-04	-3.022446e-04	1.516124e-02	-9.846953e-03
57            	1.190117e-02	-1.254894e-20	4.851792e-03	-1.212948e-04	1.284594e-02	2.975293e-04	5.829290e-03	6.071880e-03	2.975293e-04	-2.975293e-04	1.527183e-02	-1.042004e-02
58            	1.201508e-02	-1.023683e-20	3.495737e-03	-8.739342e-05	1.552493e-02	3.003771e-04	5.920148e-03	6.094935e-03	3.003771e-04	-3.003771e-04	1.727279e-02	-1.377706e-02
59            	1.244300e-02	-1.086523e-20	1.371558e-03	-3.428894e-05	2.037265e-02	3.110749e-04	6.187209e-03	6.255787e-03	3.110749e-04	-3.110749e-04	2.105843e-02	-1.968687e-02
60            	1.316810e-02	-1.366818e-20	-1.188578e-03	2.971446e-05	2.673702e-02	3.292024e-04	6.613762e-03	6.554333e-03	3.292024e-04	-3.292024e-04	2.614273e-02	-2.733131e-02
61            	1.398652e-02	-2.084376e-20	-3.853452e-03	9.633630e-05	3.358599e-02	3.496630e-04	7.089597e-03	6.896924e-03	3.496630e-04	-3.496630e-04	3.165926e-02	-3.551271e-02
62            	1.461177e-02	-3.052071e-20	-5.937655e-03	1.484414e-04	3.902144e-02	3.652944e-04	7.454329e-03	7.157446e-03	3.652944e-04	-3.652944e-04	3.605261e-02	-4.199027e-02
63            	1.508759e-02	-3.055947e-20	-7.155423e-03	1.788856e-04	4.257859e-02	3.771898e-04	7.722681e-03	7.364909e-03	3.771898e-04	-3.771898e-04	3.900088e-02	-4.615631e-02
64            	1.544604e-02	-3.659910e-20	-7.292447e-03	1.823112e-04	4.383553e-02	3.861511e-04	7.905333e-03	7.540710e-03	3.861511e-04	-3.861511e-04	4.018930e-02	-4.748175e-02
65            	1.531525e-02	-3.504788e-20	-5.952158e-03	1.488039e-04	4.117519e-02	3.828811e-04	7.806427e-03	7.508819e-03	3.828811e-04	-3.828811e-04	3.819911e-02	-4.415127e-02
66            	1.482481e-02	-3.374507e-20	-3.418643e-03	8.546608e-05	3.534444e-02	3.706203e-04	7.497872e-03	7.326940e-03	3.706203e-04	-3.706203e-04	3.363512e-02	-3.705376e-02
67            	1.433569e-02	-2.828009e-20	-5.587912e-04	1.396978e-05	2.879536e-02	3.583922e-04	7.181814e-03	7.153875e-03	3.583922e-04	-3.583922e-04	2.851596e-02	-2.907475e-02
68            	1.376478e-02	-2.778242e-20	1.746455e-03	-4.366137e-05	2.316416e-02	3.441194e-04	6.838727e-03	6.926050e-03	3.441194e-04	-3.441194e-04	2.403739e-02	-2.229093e-02
69            	1.320135e-02	-2.924440e-20	3.223165e-03	-8.057912e-05	1.915934e-02	3.300339e-04	6.520098e-03	6.681256e-03	3.300339e-04	-3.300339e-04	2.077092e-02	-1.754776e-02
70            	1.271503e-02	-2.845058e-20	4.224623e-03	-1.056156e-04	1.615949e-02	3.178757e-04	6.251898e-03	6.463129e-03	3.178757e-04	-3.178757e-04	1.827180e-02	-1.404718e-02
71            	1.236689e-02	-2.548620e-20	4.779600e-03	-1.194900e-04	1.424068e-02	3.091721e-04	6.063953e-03	6.302933e-03	3.091721e-04	-3.091721e-04	1.663048e-02	-1.185088e-02
72            	1.213100e-02	-2.187366e-20	4.862906e-03	-1.215727e-04	1.343989e-02	3.032749e-04	5.943925e-03	6.187071e-03	3.032749e-04	-3.032749e-04	1.587135e-02	-1.100844e-02
73            	1.204352e-02	-2.001478e-20	4.169417e-03	-1.042354e-04	1.443032e-02	3.010880e-04	5.917525e-03	6.125996e-03	3.010880e-04	-3.010880e-04	1.651503e-02	-1.234561e-02
74            	1.225827e-02	-1.620136e-20	2.735911e-03	-6.839778e-05	1.747402e-02	3.064568e-04	6.060739e-03	6.197535e-03	3.064568e-04	-3.064568e-04	1.884197e-02	-1.610606e-02
75            	1.269602e-02	-1.671786e-20	7.060670e-04	-1.765167e-05	2.218440e-02	3.174004e-04	6.330356e-03	6.365660e-03	3.174004e-04	-3.174004e-04	2.253743e-02	-2.183136e-02
76            	1.331425e-02	-1.795796e-20	-1.733598e-03	4.333995e-05	2.812758e-02	3.328564e-04	6.700467e-03	6.613787e-03	3.328564e-04	-3.328564e-04	2.726078e-02	-2.899438e-02
77            	1.395486e-02	-2.181369e-20	-4.079734e-03	1.019934e-04	3.401976e-02	3.488716e-04	7.079425e-03	6.875439e-03	3.488716e-04	-3.488716e-04	3.197990e-02	-3.605963e-02
78            	1.446035e-02	-3.165741e-20	-5.855994e-03	1.463998e-04	3.861573e-02	3.615086e-04	7.376573e-03	7.083773e-03	3.615086e-04	-3.615086e-04	3.568773e-02	-4.154373e-02
79            	1.489925e-02	-3.210348e-20	-6.821493e-03	1.705373e-04	4.160118e-02	3.724812e-04	7.620161e-03	7.279086e-03	3.724812e-04	-3.724812e-04	3.819043e-02	-4.501192e-02
80            	1.531033e-02	-3.565924e-20	-6.774291e-03	1.693573e-04	4.258839e-02	3.827584e-04	7.824525e-03	7.485810e-03	3.827584e-04	-3.827584e-04	3.920124e-02	-4.597553e-02
81            	1.511393e-02	-3.243115e-20	-5.212350e-03	1.303088e-04	3.933931e-02	3.778483e-04	7.687275e-03	7.426658e-03	3.778483e-04	-3.778483e-04	3.673313e-02	-4.194548e-02
82            	1.464868e-02	-3.105249e-20	-2.740852e-03	6.852129e-05	3.366411e-02	3.662171e-04	7.392862e-03	7.255820e-03	3.662171e-04	-3.662171e-04	3.229369e-02	-3.503454e-02
83            	1.406418e-02	-2.589784e-20	-5.681450e-05	1.420363e-06	2.726849e-02	3.516045e-04	7.033510e-03	7.030669e-03	3.516045e-04	-3.516045e-04	2.724008e-02	-2.729689e-02
84            	1.348035e-02	-2.636553e-20	2.018854e-03	-5.047136e-05	2.205108e-02	3.370088e-04	6.689706e-03	6.790648e-03	3.370088e-04	-3.370088e-04	2.306050e-02	-2.104165e-02
85            	1.291971e-02	-2.730843e-20	3.329511e-03	-8.323777e-05	1.837047e-02	3.229926e-04	6.376615e-03	6.543090e-03	3.229926e-04	-3.229926e-04	2.003522e-02	-1.670571e-02
86            	1.248283e-02	-2.599733e-20	4.160022e-03	-1.040005e-04	1.579276e-02	3.120708e-04	6.137415e-03	6.345416e-03	3.120708e-04	-3.120708e-04	1.787277e-02	-1.371275e-02
87            	1.215903e-02	-2.367609e-20	4.580437e-03	-1.145109e-04	1.416134e-02	3.039757e-04	5.965004e-03	6.194026e-03	3.039757e-04	-3.039757e-04	1.645156e-02	-1.187112e-02
88            	1.203826e-02	-2.039051e-20	4.454379e-03	-1.113595e-04	1.398880e-02	3.009566e-04	5.907772e-03	6.130491e-03	3.009566e-04	-3.009566e-04	1.621599e-02	-1.176161e-02
89            	1.206935e-02	-1.803721e-20	3.507199e-03	-8.767997e-05	1.571777e-02	3.017338e-04	5.946995e-03	6.122355e-03	3.017338e-04	-3.017338e-04	1.747137e-02	-1.396417e-02
90            	1.232616e-02	-1.563744e-20	1.977660e-03	-4.944151e-05	1.905176e-02	3.081541e-04	6.113640e-03	6.212523e-03	3.081541e-04	-3.081541e-04	2.004059e-02	-1.806293e-02
91            	1.287657e-02	-1.578534e-20	-2.256796e-04	5.641990e-06	2.435517e-02	3.219144e-04	6.443929e-03	6.432645e-03	3.219144e-04	-3.219144e-04	2.424233e-02	-2.446801e-02
92            	1.346226e-02	-1.705005e-20	-2.446213e-03	6.115533e-05	2.984428e-02	3.365565e-04	6.792286e-03	6.669975e-03	3.365565e-04	-3.365565e-04	2.862117e-02	-3.106738e-02
93            	1.399015e-02	-2.283894e-20	-4.487140e-03	1.121785e-04	3.495335e-02	3.497538e-04	7.107254e-03	6.882897e-03	3.497538e-04	-3.497538e-04	3.270978e-02	-3.719692e-02
94            	1.442976e-02	-3.042462e-20	-5.928334e-03	1.482083e-04	3.879157e-02	3.607441e-04	7.363091e-03	7.066674e-03	3.607441e-04	-3.607441e-04	3.582740e-02	-4.175573e-02
95            	1.482718e-02	-3.058539e-20	-6.504517e-03	1.626129e-04	4.094112e-02	3.706795e-04	7.576202e-03	7.250976e-03	3.706795e-04	-3.706795e-04	3.768886e-02	-4.419338e-02
96            	1.503807e-02	-3.434557e-20	-5.984816e-03	1.496204e-04	4.057838e-02	3.759518e-04	7.668656e-03	7.369415e-03	3.759518e-04	-3.759518e-04	3.758597e-02	-4.357079e-02
97            	1.475558e-02	-2.923489e-20	-4.077683e-03	1.019421e-04	3.643144e-02	3.688896e-04	7.479734e-03	7.275850e-03	3.688896e-04	-3.688896e-04	3.439260e-02	-3.847029e-02
98            	1.425444e-02	-2.795106e-20	-1.548290e-03	3.870725e-05	3.053805e-02	3.563609e-04	7.165925e-03	7.088511e-03	3.563609e-04	-3.563609e-04	2.976391e-02	-3.131220e-02
99            	1.372364e-02	-2.310306e-20	8.355703e-04	-2.088926e-05	2.482997e-02	3.430911e-04	6.840933e-03	6.882712e-03	3.430911e-04	-3.430911e-04	2.524775e-02	-2.441218e-02
100           	1.317815e-02	-2.496422e-20	2.552604e-03	-6.381510e-05	2.038569e-02	3.294538e-04	6.525262e-03	6.652892e-03	3.294538e-04	-3.294538e-04	2.166199e-02	-1.910938e-02
101           	1.268939e-02	-2.731587e-20	3.603856e-03	-9.009641e-05	1.732904e-02	3.172347e-04	6.254598e-03	6.434791e-03	3.172347e-04	-3.172347e-04	1.913097e-02	-1.552711e-02
102           	1.231801e-02	-2.474933e-20	4.276867e-03	-1.069217e-04	1.516003e-02	3.079502e-04	6.052082e-03	6.265925e-03	3.079502e-04	-3.079502e-04	1.729846e-02	-1.302160e-02
103           	1.207978e-02	-2.101244e-20	4.517998e-03	-1.129500e-04	1.406205e-02	3.019946e-04	5.926942e-03	6.152842e-03	3.019946e-04	-3.019946e-04	1.632105e-02	-1.180305e-02
104           	1.199593e-02	-1.940451e-20	4.142985e-03	-1.035746e-04	1.445046e-02	2.998982e-04	5.894389e-03	6.101539e-03	2.998982e-04	-2.998982e-04	1.652196e-02	-1.237897e-02
105           	1.208799e-02	-1.633190e-20	3.012372e-03	-7.530929e-05	1.666436e-02	3.021998e-04	5.968686e-03	6.119304e-03	3.021998e-04	-3.021998e-04	1.817054e-02	-1.515817e-02
106           	1.243407e-02	-1.523303e-20	1.269651e-03	-3.174127e-05	2.061744e-02	3.108519e-04	6.185296e-03	6.248779e-03	3.108519e-04	-3.108519e-04	2.125226e-02	-1.998261e-02
107           	1.302722e-02	-1.520821e-20	-1.008258e-03	2.520644e-05	2.618150e-02	3.256805e-04	6.538817e-03	6.488404e-03	3.256805e-04	-3.256805e-04	2.567737e-02	-2.668562e-02
108           	1.361641e-02	-1.729526e-20	-3.138451e-03	7.846127e-05	3.153117e-02	3.404103e-04	6.886667e-03	6.729744e-03	3.404103e-04	-3.404103e-04	2.996195e-02	-3.310040e-02
109           	1.408124e-02	-2.649467e-20	-4.961148e-03	1.240287e-04	3.611865e-02	3.520309e-04	7.164647e-03	6.916590e-03	3.520309e-04	-3.520309e-04	3.363808e-02	-3.859923e-02
110           	1.451105e-02	-2.880463e-20	-6.081352e-03	1.520338e-04	3.934390e-02	3.627762e-04	7.407559e-03	7.103491e-03	3.627762e-04	-3.627762e-04	3.630322e-02	-4.238457e-02
111           	1.486171e-02	-3.163351e-20	-6.235830e-03	1.558957e-04	4.058196e-02	3.715427e-04	7.586749e-03	7.274957e-03	3.715427e-04	-3.715427e-04	3.746404e-02	-4.369987e-02
112           	1.486759e-02	-3.109984e-20	-5.225264e-03	1.306316e-04	3.882295e-02	3.716896e-04	7.564424e-03	7.303161e-03	3.716896e-04	-3.716896e-04	3.621032e-02	-4.143558e-02
113           	1.448986e-02	-3.015999e-20	-3.080873e-03	7.702182e-05	3.397890e-02	3.622464e-04	7.321950e-03	7.167906e-03	3.622464e-04	-3.622464e-04	3.243846e-02	-3.551933e-02
114           	1.397739e-02	-2.574508e-20	-5.513725e-04	1.378431e-05	2.803718e-02	3.494348e-04	7.002481e-03	6.974913e-03	3.494348e-04	-3.494348e-04	2.776149e-02	-2.831286e-02
115           	1.346207e-02	-2.372075e-20	1.590261e-03	-3.975653e-05	2.283082e-02	3.365518e-04	6.691280e-03	6.770793e-03	3.365518e-04	-3.365518e-04	2.362595e-02	-2.203569e-02
116           	1.295338e-02	-2.581910e-20	2.995964e-03	-7.489910e-05	1.906969e-02	3.238344e-04	6.401788e-03	6.551587e-03	3.238344e-04	-3.238344e-04	2.056768e-02	-1.757171e-02
117           	1.250716e-02	-2.616088e-20	3.925377e-03	-9.813442e-05	1.630097e-02	3.126790e-04	6.155445e-03	6.351714e-03	3.126790e-04	-3.126790e-04	1.826366e-02	-1.433828e-02
118           	1.216005e-02	-2.292552e-20	4.454570e-03	-1.113643e-04	1.444060e-02	3.040013e-04	5.968662e-03	6.191390e-03	3.040013e-04	-3.040013e-04	1.666788e-02	-1.221331e-02
119           	1.200867e-02	-1.952551e-20	4.469354e-03	-1.117338e-04	1.395007e-02	3.002167e-04	5.892600e-03	6.116068e-03	3.002167e-04	-3.002167e-04	1.618475e-02	-1.171540e-02
120           	1.197340e-02	-1.813551e-20	3.737807e-03	-9.344518e-05	1.513476e-02	2.993351e-04	5.893256e-03	6.080147e-03	2.993351e-04	-2.993351e-04	1.700366e-02	-1.326586e-02
121           	1.219839e-02	-1.501255e-20	2.336284e-03	-5.840711e-05	1.815558e-02	3.049597e-04	6.040786e-03	6.157601e-03	3.049597e-04	-3.049597e-04	1.932373e-02	-1.698744e-02
122           	1.264083e-02	-1.581484e-20	4.137654e-04	-1.034413e-05	2.268180e-02	3.160207e-04	6.310070e-03	6.330759e-03	3.160207e-04	-3.160207e-04	2.288868e-02	-2.247491e-02
123           	1.326379e-02	-1.628276e-20	-1.932220e-03	4.830551e-05	2.846652e-02	3.315946e-04	6.680198e-03	6.583587e-03	3.315946e-04	-3.315946e-04	2.750041e-02	-2.943263e-02
124           	1.381149e-02	-2.003551e-20	-3.937221e-03	9.843052e-05	3.352169e-02	3.452873e-04	7.004177e-03	6.807316e-03	3.452873e-04	-3.452873e-04	3.155307e-02	-3.549030e-02
125           	1.419214e-02	-3.005078e-20	-5.467539e-03	1.366885e-04	3.739589e-02	3.548034e-04	7.232756e-03	6.959379e-03	3.548034e-04	-3.548034e-04	3.466212e-02	-4.012966e-02
126           	1.463291e-02	-2.920837e-20	-6.325996e-03	1.581499e-04	4.016627e-02	3.658226e-04	7.474603e-03	7.158303e-03	3.658226e-04	-3.658226e-04	3.700327e-02	-4.332926e-02
127           	1.492477e-02	-3.411788e-20	-6.127027e-03	1.531757e-04	4.059415e-02	3.731192e-04	7.615559e-03	7.309208e-03	3.731192e-04	-3.731192e-04	3.753064e-02	-4.365767e-02
128           	1.477692e-02	-2.963915e-20	-4.603758e-03	1.150940e-04	3.748890e-02	3.694231e-04	7.503556e-03	7.273368e-03	3.694231e-04	-3.694231e-04	3.518702e-02	-3.979078e-02
129           	1.432889e-02	-2.866674e-20	-2.198224e-03	5.495559e-05	3.195809e-02	3.582223e-04	7.219402e-03	7.109491e-03	3.582223e-04	-3.582223e-04	3.085898e-02	-3.305721e-02
130           	1.378564e-02	-2.417260e-20	3.052878e-04	-7.632196e-06	2.599259e-02	3.446411e-04	6.885190e-03	6.900454e-03	3.446411e-04	-3.446411e-04	2.614524e-02	-2.583995e-02
131           	1.325071e-02	-2.475201e-20	2.188123e-03	-5.470306e-05	2.124782e-02	3.312678e-04	6.570652e-03	6.680058e-03	3.312678e-04	-3.312678e-04	2.234188e-02	-2.015376e-02
132           	1.275403e-02	-2.797760e-20	3.359424e-03	-8.398560e-05	1.795006e-02	3.188509e-04	6.293032e-03	6.461003e-03	3.188509e-04	-3.188509e-04	1.962977e-02	-1.627035e-02
133           	1.237974e-02	-2.577973e-20	4.107040e-03	-1.026760e-04	1.564290e-02	3.094935e-04	6.087193e-03	6.292545e-03	3.094935e-04	-3.094935e-04	1.769642e-02	-1.358938e-02
134           	1.206541e-02	-2.176812e-20	4.417510e-03	-1.104378e-04	1.425195e-02	3.016353e-04	5.922269e-03	6.143144e-03	3.016353e-04	-3.016353e-04	1.646070e-02	-1.204319e-02
135           	1.199808e-02	-1.930282e-20	4.121052e-03	-1.030263e-04	1.452742e-02	2.999519e-04	5.896013e-03	6.102065e-03	2.999519e-04	-2.999519e-04	1.658795e-02	-1.246690e-02
136           	1.207384e-02	-1.617663e-20	3.077746e-03	-7.694365e-05	1.654782e-02	3.018459e-04	5.959975e-03	6.113862e-03	3.018459e-04	-3.018459e-04	1.808670e-02	-1.500895e-02
137           	1.234587e-02	-1.563278e-20	1.475407e-03	-3.688516e-05	2.007848e-02	3.086469e-04	6.136052e-03	6.209823e-03	3.086469e-04	-3.086469e-04	2.081619e-02	-1.934078e-02
138           	1.291039e-02	-1.590652e-20	-7.350864e-04	1.837716e-05	2.543932e-02	3.227598e-04	6.473573e-03	6.436818e-03	3.227598e-04	-3.227598e-04	2.507177e-02	-2.580686e-02
139           	1.349086e-02	-1.791373e-20	-2.868868e-03	7.172170e-05	3.076577e-02	3.372716e-04	6.817154e-03	6.673711e-03	3.372716e-04	-3.372716e-04	2.933133e-02	-3.220020e-02
140           	1.397849e-02	-2.563253e-20	-4.757331e-03	1.189333e-04	3.551298e-02	3.494623e-04	7.108178e-03	6.870312e-03	3.494623e-04	-3.494623e-04	3.313431e-02	-3.789165e-02
141           	1.441269e-02	-2.983182e-20	-5.983772e-03	1.495943e-04	3.894163e-02	3.603172e-04	7.355937e-03	7.056749e-03	3.603172e-04	-3.603172e-04	3.594975e-02	-4.193352e-02
142           	1.479097e-02	-3.135021e-20	-6.281911e-03	1.570478e-04	4.051313e-02	3.697742e-04	7.552532e-03	7.238436e-03	3.697742e-04	-3.697742e-04	3.737217e-02	-4.365408e-02
143           	1.487690e-02	-3.241360e-20	-5.431224e-03	1.357806e-04	3.923632e-02	3.719224e-04	7.574228e-03	7.302667e-03	3.719224e-04	-3.719224e-04	3.652071e-02	-4.195193e-02
144           	1.455132e-02	-3.102129e-20	-3.343044e-03	8.357611e-05	3.461521e-02	3.637830e-04	7.359237e-03	7.192085e-03	3.637830e-04	-3.637830e-04	3.294369e-02	-3.628673e-02
145           	1.403714e-02	-2.692644e-20	-7.555931e-04	1.888983e-05	2.855885e-02	3.509285e-04	7.037460e-03	6.999681e-03	3.509285e-04	-3.509285e-04	2.818105e-02	-2.893664e-02
146           	1.351944e-02	-2.381780e-20	1.429397e-03	-3.573493e-05	2.326543e-02	3.379860e-04	6.723985e-03	6.795454e-03	3.379860e-04	-3.379860e-04	2.398013e-02	-2.255074e-02
147           	1.300291e-02	-2.542977e-20	2.912846e-03	-7.282115e-05	1.934285e-02	3.250727e-04	6.428633e-03	6.574276e-03	3.250727e-04	-3.250727e-04	2.079928e-02	-1.788643e-02
148           	1.256596e-02	-2.650493e-20	3.844836e-03	-9.612091e-05	1.658763e-02	3.141490e-04	6.186858e-03	6.379100e-03	3.141490e-04	-3.141490e-04	1.851005e-02	-1.466521e-02
149           	1.220565e-02	-2.387109e-20	4.401396e-03	-1.100349e-04	1.464650e-02	3.051412e-04	5.992790e-03	6.212860e-03	3.051412e-04	-3.051412e-04	1.684719e-02	-1.244580e-02
150           	1.204664e-02	-2.003616e-20	4.442655e-03	-1.110664e-04	1.408847e-02	3.011660e-04	5.912254e-03	6.134387e-03	3.011660e-04	-3.011660e-04	1.630980e-02	-1.186715e-02
151           	1.197490e-02	-1.875788e-20	3.767049e-03	-9.417623e-05	1.508935e-02	2.993726e-04	5.893276e-03	6.081629e-03	2.993726e-04	-2.993726e-04	1.697287e-02	-1.320583e-02
152           	1.221022e-02	-1.522785e-20	2.371704e-03	-5.929260e-05	1.811627e-02	3.052555e-04	6.045817e-03	6.164402e-03	3.052555e-04	-3.052555e-04	1.930213e-02	-1.693042e-02
153           	1.262025e-02	-1.611606e-20	4.741720e-04	-1.185430e-05	2.252800e-02	3.155063e-04	6.298273e-03	6.321981e-03	3.155063e-04	-3.155063e-04	2.276509e-02	-2.229092e-02
154           	1.318327e-02	-1.721129e-20	-1.785113e-03	4.462782e-05	2.801863e-02	3.295817e-04	6.636262e-03	6.547006e-03	3.295817e-04	-3.295817e-04	2.712608e-02	-2.891119e-02
155           	1.378788e-02	-2.106598e-20	-3.966118e-03	9.915295e-05	3.351995e-02	3.446970e-04	6.993092e-03	6.794786e-03	3.446970e-04	-3.446970e-04	3.153689e-02	-3.550301e-02
156           	1.426614e-02	-3.109008e-20	-5.566720e-03	1.391680e-04	3.771831e-02	3.566535e-04	7.272237e-03	6.993901e-03	3.566535e-04	-3.566535e-04	3.493495e-02	-4.050167e-02
157           	1.468013e-02	-2.987281e-20	-6.378373e-03	1.594593e-04	4.034905e-02	3.670034e-04	7.499527e-03	7.180608e-03	3.670034e-04	-3.670034e-04	3.715987e-02	-4.353824e-02
158           	1.498575e-02	-3.398633e-20	-6.173392e-03	1.543348e-04	4.079608e-02	3.746436e-04	7.647208e-03	7.338538e-03	3.746436e-04	-3.746436e-04	3.770939e-02	-4.388278e-02
159           	1.483544e-02	-3.032018e-20	-4.599870e-03	1.149968e-04	3.759538e-02	3.708860e-04	7.532716e-03	7.302723e-03	3.708860e-04	-3.708860e-04	3.529544e-02	-3.989531e-02
160           	1.437056e-02	-2.918997e-20	-2.164488e-03	5.411219e-05	3.197700e-02	3.592639e-04	7.239391e-03	7.131167e-03	3.592639e-04	-3.592639e-04	3.089475e-02	-3.305924e-02
161           	1.381820e-02	-2.436653e-20	3.502419e-04	-8.756048e-06	2.597436e-02	3.454549e-04	6.900343e-03	6.917855e-03	3.454549e-04	-3.454549e-04	2.614948e-02	-2.579924e-02
162           	1.326832e-02	-2.482239e-20	2.240046e-03	-5.600116e-05	2.118562e-02	3.317079e-04	6.578158e-03	6.690160e-03	3.317079e-04	-3.317079e-04	2.230565e-02	-2.006560e-02
163           	1.276308e-02	-2.778270e-20	3.434565e-03	-8.586411e-05	1.782459e-02	3.190771e-04	6.295677e-03	6.467406e-03	3.190771e-04	-3.190771e-04	1.954188e-02	-1.610731e-02
164           	1.238774e-02	-2.584716e-20	4.192549e-03	-1.048137e-04	1.549504e-02	3.096935e-04	6.089057e-03	6.298684e-03	3.096935e-04	-3.096935e-04	1.759131e-02	-1.339876e-02
165           	1.207867e-02	-2.202693e-20	4.504030e-03	-1.126007e-04	1.410820e-02	3.019667e-04	5.926733e-03	6.151935e-03	3.019667e-04	-3.019667e-04	1.636021e-02	-1.185618e-02
166           	1.201855e-02	-1.947561e-20	4.201204e-03	-1.050301e-04	1.440631e-02	3.004638e-04	5.904245e-03	6.114306e-03	3.004638e-04	-3.004638e-04	1.650691e-02	-1.230570e-02
167           	1.209223e-02	-1.637154e-20	3.142412e-03	-7.856030e-05	1.645048e-02	3.023057e-04	5.967553e-03	6.124674e-03	3.023057e-04	-3.023057e-04	1.802168e-02	-1.487927e-02