# Force coefficients
# dragDir     : (1.000000e+00 0.000000e+00 0.000000e+00)
# sideDir     : (0.000000e+00 0.000000e+00 -1.000000e+00)
# liftDir     : (0.000000e+00 1.000000e+00 0.000000e+00)
# rollAxis    : (1.000000e+00 0.000000e+00 0.000000e+00)
# pitchAxis   : (0.000000e+00 0.000000e+00 -1.000000e+00)
# yawAxis     : (0.000000e+00 1.000000e+00 0.000000e+00)
# magUInf     : 2.000000e-02
# lRef        : 1.000000e-01
# Aref        : 1.000000e-01
# CofR        : (0.000000e+00 0.000000e+00 0.000000e+00)
#
# Time        	Cd            	Cs            	Cl            	CmRoll        	CmPitch       	CmYaw         	Cd(f)         	Cd(r)         	Cs(f)         	Cs(r)         	Cl(f)         	Cl(r)         
1             	3.047200e-03	-9.225206e-21	1.474524e-03	-3.686311e-05	2.904258e-03	7.618001e-05	1.486737e-03	1.560463e-03	7.618001e-05	-7.618001e-05	3.641520e-03	-2.166996e-03
2             	8.263449e-03	-2.954776e-20	2.876248e-03	-7.190620e-05	1.031358e-02	2.065862e-04	4.059818e-03	4.203631e-03	2.065862e-04	-2.065862e-04	1.175170e-02	-8.875452e-03
3             	8.421561e-03	-1.579781e-20	2.780708e-03	-6.951770e-05	1.097678e-02	2.105390e-04	4.141263e-03	4.280298e-03	2.105390e-04	-2.105390e-04	1.236714e-02	-9.586427e-03
4             	7.608131e-03	4.147407e-21	2.896321e-03	-7.240803e-05	9.188262e-03	1.902033e-04	3.731657e-03	3.876474e-03	1.902033e-04	-1.902033e-04	1.063642e-02	-7.740102e-03
5             	6.964435e-03	1.096671e-20	3.123835e-03	-7.809587e-05	7.425050e-03	1.741109e-04	3.404122e-03	3.560313e-03	1.741109e-04	-1.741109e-04	8.986967e-03	-5.863132e-03
6             	6.699944e-03	1.054224e-20	3.288083e-03	-8.220209e-05	6.544602e-03	1.674986e-04	3.267770e-03	3.432174e-03	1.674986e-04	-1.674986e-04	8.188643e-03	-4.900560e-03
7             	6.801123e-03	8.110261e-21	3.369099e-03	-8.422747e-05	6.570635e-03	1.700281e-04	3.316334e-03	3.484789e-03	1.700281e-04	-1.700281e-04	8.255184e-03	-4.886086e-03
8             	6.895804e-03	6.463683e-21	3.297922e-03	-8.244805e-05	6.905982e-03	1.723951e-04	3.365454e-03	3.530350e-03	1.723951e-04	-1.723951e-04	8.554943e-03	-5.257020e-03
9             	6.915520e-03	6.284920e-21	3.179048e-03	-7.947621e-05	7.188841e-03	1.728880e-04	3.378284e-03	3.537236e-03	1.728880e-04	-1.728880e-04	8.778365e-03	-5.599316e-03
10            	6.869966e-03	6.345615e-21	3.022827e-03	-7.557068e-05	7.414698e-03	1.717491e-04	3.359412e-03	3.510554e-03	1.717491e-04	-1.717491e-04	8.926111e-03	-5.903284e-03
11            	6.719416e-03	6.607736e-21	2.802679e-03	-7.006698e-05	7.564030e-03	1.679854e-04	3.289641e-03	3.429775e-03	1.679854e-04	-1.679854e-04	8.965369e-03	-6.162690e-03
12            	6.504934e-03	6.789045e-21	2.549345e-03	-6.373363e-05	7.659119e-03	1.626234e-04	3.188734e-03	3.316201e-03	1.626234e-04	-1.626234e-04	8.933792e-03	-6.384447e-03
13            	6.280328e-03	6.810151e-21	2.297049e-03	-5.742624e-05	7.738164e-03	1.570082e-04	3.082738e-03	3.197590e-03	1.570082e-04	-1.570082e-04	8.886688e-03	-6.589639e-03
14            	6.094933e-03	6.653156e-21	2.081710e-03	-5.204275e-05	7.822429e-03	1.523733e-04	2.995424e-03	3.099509e-03	1.523733e-04	-1.523733e-04	8.863284e-03	-6.781574e-03
15            	5.960498e-03	6.370410e-21	1.914679e-03	-4.786698e-05	7.909368e-03	1.490124e-04	2.932382e-03	3.028116e-03	1.490124e-04	-1.490124e-04	8.866708e-03	-6.952028e-03
16            	5.840849e-03	6.311936e-21	1.787304e-03	-4.468259e-05	7.945511e-03	1.460212e-04	2.875742e-03	2.965107e-03	1.460212e-04	-1.460212e-04	8.839162e-03	-7.051859e-03
17            	5.787967e-03	6.215026e-21	1.737888e-03	-4.344719e-05	7.952480e-03	1.446992e-04	2.850536e-03	2.937431e-03	1.446992e-04	-1.446992e-04	8.821424e-03	-7.083536e-03
18            	5.753985e-03	5.971744e-21	1.742989e-03	-4.357473e-05	7.885598e-03	1.438496e-04	2.833418e-03	2.920567e-03	1.438496e-04	-1.438496e-04	8.757092e-03	-7.014103e-03
19            	5.735013e-03	5.676418e-21	1.793887e-03	-4.484717e-05	7.756028e-03	1.433753e-04	2.822659e-03	2.912354e-03	1.433753e-04	-1.433753e-04	8.652971e-03	-6.859084e-03
20            	5.724824e-03	5.334837e-21	1.885216e-03	-4.713039e-05	7.559435e-03	1.431206e-04	2.815282e-03	2.909543e-03	1.431206e-04	-1.431206e-04	8.502043e-03	-6.616827e-03
21            	5.722420e-03	4.930792e-21	2.003593e-03	-5.008983e-05	7.321989e-03	1.430605e-04	2.811120e-03	2.911300e-03	1.430605e-04	-1.430605e-04	8.323786e-03	-6.320193e-03
22            	5.743570e-03	4.556150e-21	2.142282e-03	-5.355704e-05	7.086081e-03	1.435893e-04	2.818228e-03	2.925342e-03	1.435893e-04	-1.435893e-04	8.157222e-03	-6.014940e-03
23            	5.785342e-03	4.400870e-21	2.285947e-03	-5.714868e-05	6.877247e-03	1.446336e-04	2.835523e-03	2.949820e-03	1.446336e-04	-1.446336e-04	8.020220e-03	-5.734273e-03
24            	5.846733e-03	4.404405e-21	2.419409e-03	-6.048522e-05	6.723484e-03	1.461683e-04	2.862882e-03	2.983852e-03	1.461683e-04	-1.461683e-04	7.933188e-03	-5.513780e-03
25            	5.916661e-03	4.510218e-21	2.517988e-03	-6.294971e-05	6.652364e-03	1.479165e-04	2.895381e-03	3.021280e-03	1.479165e-04	-1.479165e-04	7.911358e-03	-5.393369e-03
26            	5.975241e-03	4.689217e-21	2.567413e-03	-6.418532e-05	6.654047e-03	1.493810e-04	2.923435e-03	3.051806e-03	1.493810e-04	-1.493810e-04	7.937753e-03	-5.370340e-03
27            	6.022137e-03	4.895146e-21	2.559900e-03	-6.399751e-05	6.745430e-03	1.505534e-04	2.947071e-03	3.075066e-03	1.505534e-04	-1.505534e-04	8.025380e-03	-5.465480e-03
28            	6.063502e-03	5.099901e-21	2.498630e-03	-6.246575e-05	6.932973e-03	1.515875e-04	2.969285e-03	3.094217e-03	1.515875e-04	-1.515875e-04	8.182288e-03	-5.683658e-03
29            	6.096721e-03	5.304758e-21	2.389521e-03	-5.973804e-05	7.203471e-03	1.524180e-04	2.988623e-03	3.108099e-03	1.524180e-04	-1.524180e-04	8.398231e-03	-6.008710e-03
30            	6.116695e-03	5.562397e-21	2.249583e-03	-5.623957e-05	7.517054e-03	1.529174e-04	3.002108e-03	3.114587e-03	1.529174e-04	-1.529174e-04	8.641846e-03	-6.392263e-03
31            	6.136163e-03	5.817198e-21	2.106597e-03	-5.266493e-05	7.845201e-03	1.534041e-04	3.015416e-03	3.120746e-03	1.534041e-04	-1.534041e-04	8.898500e-03	-6.791903e-03
32            	6.168052e-03	6.160762e-21	1.996399e-03	-4.990999e-05	8.137761e-03	1.542013e-04	3.034116e-03	3.133936e-03	1.542013e-04	-1.542013e-04	9.135961e-03	-7.139562e-03
33            	6.198732e-03	6.558130e-21	1.958729e-03	-4.896821e-05	8.284665e-03	1.549683e-04	3.050398e-03	3.148334e-03	1.549683e-04	-1.549683e-04	9.264030e-03	-7.305301e-03
34            	6.223263e-03	6.668404e-21	2.007123e-03	-5.017808e-05	8.249076e-03	1.555816e-04	3.061454e-03	3.161810e-03	1.555816e-04	-1.555816e-04	9.252638e-03	-7.245514e-03
35            	6.244762e-03	6.487681e-21	2.139857e-03	-5.349643e-05	8.037417e-03	1.561191e-04	3.068885e-03	3.175878e-03	1.561191e-04	-1.561191e-04	9.107345e-03	-6.967488e-03
36            	6.273081e-03	6.063396e-21	2.336153e-03	-5.840383e-05	7.708285e-03	1.568270e-04	3.078137e-03	3.194944e-03	1.568270e-04	-1.568270e-04	8.876361e-03	-6.540208e-03
37            	6.326731e-03	5.565404e-21	2.565221e-03	-6.413051e-05	7.357243e-03	1.581683e-04	3.099235e-03	3.227496e-03	1.581683e-04	-1.581683e-04	8.639854e-03	-6.074633e-03
38            	6.418538e-03	5.488602e-21	2.791399e-03	-6.978497e-05	7.078558e-03	1.604634e-04	3.139484e-03	3.279054e-03	1.604634e-04	-1.604634e-04	8.474257e-03	-5.682859e-03
39            	6.537581e-03	5.645755e-21	2.955777e-03	-7.389443e-05	6.968392e-03	1.634395e-04	3.194896e-03	3.342685e-03	1.634395e-04	-1.634395e-04	8.446281e-03	-5.490504e-03
40            	6.680602e-03	5.983862e-21	3.011917e-03	-7.529792e-05	7.111555e-03	1.670150e-04	3.265003e-03	3.415599e-03	1.670150e-04	-1.670150e-04	8.617513e-03	-5.605596e-03
41            	6.826610e-03	6.385367e-21	2.930694e-03	-7.326734e-05	7.532761e-03	1.706652e-04	3.340037e-03	3.486572e-03	1.706652e-04	-1.706652e-04	8.998108e-03	-6.067414e-03
42            	6.923623e-03	6.787689e-21	2.747602e-03	-6.869006e-05	8.066507e-03	1.730906e-04	3.393121e-03	3.530502e-03	1.730906e-04	-1.730906e-04	9.440308e-03	-6.692706e-03
43            	6.939492e-03	7.227383e-21	2.512698e-03	-6.281744e-05	8.564358e-03	1.734873e-04	3.406929e-03	3.532563e-03	1.734873e-04	-1.734873e-04	9.820707e-03	-7.308009e-03
44            	6.897537e-03	7.513793e-21	2.284308e-03	-5.710770e-05	8.957971e-03	1.724384e-04	3.391661e-03	3.505876e-03	1.724384e-04	-1.724384e-04	1.010013e-02	-7.815817e-03
45            	6.832577e-03	8.078700e-21	2.167430e-03	-5.418574e-05	9.085423e-03	1.708144e-04	3.362103e-03	3.470474e-03	1.708144e-04	-1.708144e-04	1.016914e-02	-8.001708e-03
46            	6.775914e-03	8.051306e-21	2.179298e-03	-5.448244e-05	8.968706e-03	1.693979e-04	3.333475e-03	3.442440e-03	1.693979e-04	-1.693979e-04	1.005835e-02	-7.879057e-03
47            	6.711553e-03	7.583282e-21	2.285490e-03	-5.713725e-05	8.647771e-03	1.677888e-04	3.298639e-03	3.412914e-03	1.677888e-04	-1.677888e-04	9.790516e-03	-7.505026e-03
48            	6.663597e-03	6.912888e-21	2.466470e-03	-6.166174e-05	8.206218e-03	1.665899e-04	3.270137e-03	3.393460e-03	1.665899e-04	-1.665899e-04	9.439453e-03	-6.972983e-03
49            	6.649521e-03	6.192774e-21	2.690882e-03	-6.727205e-05	7.738042e-03	1.662380e-04	3.257488e-03	3.392032e-03	1.662380e-04	-1.662380e-04	9.083483e-03	-6.392601e-03
50            	6.682144e-03	5.831701e-21	2.930320e-03	-7.325800e-05	7.321656e-03	1.670536e-04	3.267814e-03	3.414330e-03	1.670536e-04	-1.670536e-04	8.786816e-03	-5.856496e-03
51            	6.751842e-03	5.922301e-21	3.121971e-03	-7.804926e-05	7.062886e-03	1.687961e-04	3.297872e-03	3.453970e-03	1.687961e-04	-1.687961e-04	8.623872e-03	-5.501901e-03
52            	6.840312e-03	6.158730e-21	3.210897e-03	-8.027243e-05	7.037520e-03	1.710078e-04	3.339884e-03	3.500428e-03	1.710078e-04	-1.710078e-04	8.642969e-03	-5.432072e-03
53            	6.950416e-03	6.579360e-21	3.172721e-03	-7.931802e-05	7.300774e-03	1.737604e-04	3.395890e-03	3.554526e-03	1.737604e-04	-1.737604e-04	8.887134e-03	-5.714413e-03
54            	7.046238e-03	7.016885e-21	3.016255e-03	-7.540637e-05	7.771786e-03	1.761560e-04	3.447713e-03	3.598525e-03	1.761560e-04	-1.761560e-04	9.279913e-03	-6.263658e-03
55            	7.109472e-03	7.439364e-21	2.780207e-03	-6.950516e-05	8.346567e-03	1.777368e-04	3.485231e-03	3.624241e-03	1.777368e-04	-1.777368e-04	9.736670e-03	-6.956464e-03
56            	7.095894e-03	7.966983e-21	2.508672e-03	-6.271681e-05	8.868239e-03	1.773974e-04	3.485230e-03	3.610664e-03	1.773974e-04	-1.773974e-04	1.012258e-02	-7.613903e-03
57            	7.043557e-03	8.467511e-21	2.280794e-03	-5.701984e-05	9.246410e-03	1.760889e-04	3.464759e-03	3.578798e-03	1.760889e-04	-1.760889e-04	1.038681e-02	-8.106013e-03
58            	6.986764e-03	8.932410e-21	2.195569e-03	-5.488921e-05	9.329889e-03	1.746691e-04	3.438493e-03	3.548271e-03	1.746691e-04	-1.746691e-04	1.042767e-02	-8.232105e-03
59            	6.921127e-03	8.762732e-21	2.240804e-03	-5.602010e-05	9.132268e-03	1.730282e-04	3.404543e-03	3.516583e-03	1.730282e-04	-1.730282e-04	1.025267e-02	-8.011866e-03
60            	6.847576e-03	8.158329e-21	2.384484e-03	-5.961209e-05	8.720979e-03	1.711894e-04	3.364176e-03	3.483400e-03	1.711894e-04	-1.711894e-04	9.913221e-03	-7.528737e-03
61            	6.790634e-03	7.361923e-21	2.598589e-03	-6.496472e-05	8.195671e-03	1.697659e-04	3.330352e-03	3.460282e-03	1.697659e-04	-1.697659e-04	9.494965e-03	-6.896376e-03
62            	6.777155e-03	6.499898e-21	2.850452e-03	-7.126129e-05	7.671155e-03	1.694289e-04	3.317316e-03	3.459839e-03	1.694289e-04	-1.694289e-04	9.096381e-03	-6.245929e-03
63            	6.807725e-03	6.240178e-21	3.087661e-03	-7.719153e-05	7.251226e-03	1.701931e-04	3.326671e-03	3.481054e-03	1.701931e-04	-1.701931e-04	8.795057e-03	-5.707396e-03
64            	6.859558e-03	6.275064e-21	3.250041e-03	-8.125101e-05	7.013490e-03	1.714890e-04	3.348528e-03	3.511030e-03	1.714890e-04	-1.714890e-04	8.638510e-03	-5.388470e-03
65            	6.952182e-03	6.450237e-21	3.299479e-03	-8.248698e-05	7.072586e-03	1.738046e-04	3.393604e-03	3.558578e-03	1.738046e-04	-1.738046e-04	8.722326e-03	-5.422847e-03
66            	7.071392e-03	6.844050e-21	3.220431e-03	-8.051078e-05	7.432925e-03	1.767848e-04	3.455185e-03	3.616207e-03	1.767848e-04	-1.767848e-04	9.043141e-03	-5.822709e-03
67            	7.164691e-03	7.256098e-21	3.027018e-03	-7.567545e-05	7.972178e-03	1.791173e-04	3.506670e-03	3.658021e-03	1.791173e-04	-1.791173e-04	9.485687e-03	-6.458669e-03
68            	7.213946e-03	7.704331e-21	2.765157e-03	-6.912893e-05	8.574596e-03	1.803486e-04	3.537844e-03	3.676102e-03	1.803486e-04	-1.803486e-04	9.957175e-03	-7.192018e-03
69            	7.177051e-03	8.179530e-21	2.476843e-03	-6.192108e-05	9.091490e-03	1.794263e-04	3.526605e-03	3.650447e-03	1.794263e-04	-1.794263e-04	1.032991e-02	-7.853068e-03
70            	7.117434e-03	8.783696e-21	2.270227e-03	-5.675568e-05	9.414703e-03	1.779359e-04	3.501962e-03	3.615473e-03	1.779359e-04	-1.779359e-04	1.054982e-02	-8.279589e-03
71            	7.052439e-03	9.068979e-21	2.209740e-03	-5.524351e-05	9.432840e-03	1.763110e-04	3.470976e-03	3.581463e-03	1.763110e-04	-1.763110e-04	1.053771e-02	-8.327970e-03
72            	6.983539e-03	8.771171e-21	2.273706e-03	-5.684264e-05	9.189062e-03	1.745885e-04	3.434927e-03	3.548612e-03	1.745885e-04	-1.745885e-04	1.032591e-02	-8.052209e-03
73            	6.888954e-03	8.115398e-21	2.409418e-03	-6.023545e-05	8.750909e-03	1.722238e-04	3.384241e-03	3.504712e-03	1.722238e-04	-1.722238e-04	9.955618e-03	-7.546200e-03
74            	6.814192e-03	7.306647e-21	2.615887e-03	-6.539716e-05	8.209483e-03	1.703548e-04	3.341699e-03	3.472493e-03	1.703548e-04	-1.703548e-04	9.517426e-03	-6.901540e-03
75            	6.818200e-03	6.465601e-21	2.881332e-03	-7.203329e-05	7.691256e-03	1.704550e-04	3.337067e-03	3.481133e-03	1.704550e-04	-1.704550e-04	9.131922e-03	-6.250590e-03
76            	6.863381e-03	6.261335e-21	3.126556e-03	-7.816391e-05	7.282063e-03	1.715845e-04	3.353526e-03	3.509854e-03	1.715845e-04	-1.715845e-04	8.845341e-03	-5.718785e-03
77            	6.917262e-03	6.365180e-21	3.283366e-03	-8.208414e-05	7.058200e-03	1.729315e-04	3.376547e-03	3.540715e-03	1.729315e-04	-1.729315e-04	8.699883e-03	-5.416517e-03
78            	7.008632e-03	6.633850e-21	3.320514e-03	-8.301284e-05	7.137421e-03	1.752158e-04	3.421303e-03	3.587329e-03	1.752158e-04	-1.752158e-04	8.797678e-03	-5.477164e-03
79            	7.123319e-03	7.070733e-21	3.223679e-03	-8.059196e-05	7.523819e-03	1.780830e-04	3.481068e-03	3.642252e-03	1.780830e-04	-1.780830e-04	9.135658e-03	-5.911980e-03
80            	7.207106e-03	7.452079e-21	3.013691e-03	-7.534228e-05	8.078263e-03	1.801777e-04	3.528211e-03	3.678895e-03	1.801777e-04	-1.801777e-04	9.585108e-03	-6.571417e-03
81            	7.240378e-03	7.863601e-21	2.742637e-03	-6.856591e-05	8.670302e-03	1.810094e-04	3.551623e-03	3.688755e-03	1.810094e-04	-1.810094e-04	1.004162e-02	-7.298983e-03
82            	7.192748e-03	8.293419e-21	2.451160e-03	-6.127900e-05	9.175659e-03	1.798187e-04	3.535095e-03	3.657653e-03	1.798187e-04	-1.798187e-04	1.040124e-02	-7.950079e-03
83            	7.129417e-03	8.944805e-21	2.256532e-03	-5.641329e-05	9.467931e-03	1.782354e-04	3.508295e-03	3.621122e-03	1.782354e-04	-1.782354e-04	1.059620e-02	-8.339665e-03
84            	7.060085e-03	9.144279e-21	2.209457e-03	-5.523643e-05	9.450967e-03	1.765021e-04	3.474806e-03	3.585279e-03	1.765021e-04	-1.765021e-04	1.055570e-02	-8.346238e-03
85            	6.982731e-03	8.764019e-21	2.285901e-03	-5.714753e-05	9.168262e-03	1.745683e-04	3.434218e-03	3.548513e-03	1.745683e-04	-1.745683e-04	1.031121e-02	-8.025312e-03
86            	6.898977e-03	8.041291e-21	2.450751e-03	-6.126879e-05	8.694543e-03	1.724744e-04	3.388220e-03	3.510758e-03	1.724744e-04	-1.724744e-04	9.919918e-03	-7.469167e-03
87            	6.847137e-03	7.194638e-21	2.681401e-03	-6.703504e-05	8.144233e-03	1.711784e-04	3.356533e-03	3.490603e-03	1.711784e-04	-1.711784e-04	9.484934e-03	-6.803533e-03
88            	6.836323e-03	6.377681e-21	2.941347e-03	-7.353368e-05	7.606886e-03	1.709081e-04	3.344628e-03	3.491695e-03	1.709081e-04	-1.709081e-04	9.077559e-03	-6.136212e-03
89            	6.868806e-03	6.249001e-21	3.174343e-03	-7.935857e-05	7.196410e-03	1.717201e-04	3.355044e-03	3.513761e-03	1.717201e-04	-1.717201e-04	8.783582e-03	-5.609239e-03
90            	6.921976e-03	6.357444e-21	3.314248e-03	-8.285621e-05	7.003116e-03	1.730494e-04	3.378132e-03	3.543844e-03	1.730494e-04	-1.730494e-04	8.660240e-03	-5.345992e-03
91            	7.008753e-03	6.653046e-21	3.324937e-03	-8.312344e-05	7.126266e-03	1.752188e-04	3.421253e-03	3.587500e-03	1.752188e-04	-1.752188e-04	8.788735e-03	-5.463797e-03
92            	7.116758e-03	7.067599e-21	3.212896e-03	-8.032241e-05	7.529725e-03	1.779189e-04	3.478056e-03	3.638701e-03	1.779189e-04	-1.779189e-04	9.136173e-03	-5.923276e-03
93            	7.193706e-03	7.442581e-21	2.994403e-03	-7.486006e-05	8.088451e-03	1.798426e-04	3.521993e-03	3.671713e-03	1.798426e-04	-1.798426e-04	9.585652e-03	-6.591250e-03
94            	7.223620e-03	7.898927e-21	2.721135e-03	-6.802838e-05	8.680192e-03	1.805905e-04	3.543782e-03	3.679839e-03	1.805905e-04	-1.805905e-04	1.004076e-02	-7.319624e-03
95            	7.175914e-03	8.301554e-21	2.430251e-03	-6.075627e-05	9.185869e-03	1.793979e-04	3.527201e-03	3.648713e-03	1.793979e-04	-1.793979e-04	1.040099e-02	-7.970744e-03
96            	7.108639e-03	8.965991e-21	2.248093e-03	-5.620233e-05	9.443563e-03	1.777160e-04	3.498117e-03	3.610522e-03	1.777160e-04	-1.777160e-04	1.056761e-02	-8.319516e-03
97            	7.041451e-03	9.112637e-21	2.206520e-03	-5.516300e-05	9.417448e-03	1.760363e-04	3.465563e-03	3.575889e-03	1.760363e-04	-1.760363e-04	1.052071e-02	-8.314188e-03
98            	6.961144e-03	8.735094e-21	2.276653e-03	-5.691632e-05	9.141580e-03	1.740286e-04	3.423656e-03	3.537488e-03	1.740286e-04	-1.740286e-04	1.027991e-02	-8.003253e-03
99            	6.883958e-03	8.065704e-21	2.429811e-03	-6.074527e-05	8.701870e-03	1.720989e-04	3.381234e-03	3.502724e-03	1.720989e-04	-1.720989e-04	9.916776e-03	-7.486965e-03
100           	6.818951e-03	7.254070e-21	2.640705e-03	-6.601762e-05	8.169443e-03	1.704738e-04	3.343458e-03	3.475493e-03	1.704738e-04	-1.704738e-04	9.489795e-03	-6.849090e-03
101           	6.821540e-03	6.444519e-21	2.905582e-03	-7.263955e-05	7.649622e-03	1.705385e-04	3.338130e-03	3.483410e-03	1.705385e-04	-1.705385e-04	9.102413e-03	-6.196831e-03
102           	6.864610e-03	6.273932e-21	3.147591e-03	-7.868978e-05	7.241841e-03	1.716153e-04	3.353615e-03	3.510995e-03	1.716153e-04	-1.716153e-04	8.815637e-03	-5.668046e-03
103           	6.920604e-03	6.376869e-21	3.296862e-03	-8.242154e-05	7.035946e-03	1.730151e-04	3.377881e-03	3.542724e-03	1.730151e-04	-1.730151e-04	8.684377e-03	-5.387515e-03
104           	7.025466e-03	6.669746e-21	3.324550e-03	-8.311375e-05	7.157974e-03	1.756366e-04	3.429619e-03	3.595847e-03	1.756366e-04	-1.756366e-04	8.820249e-03	-5.495699e-03
105           	7.141331e-03	7.116324e-21	3.210430e-03	-8.026074e-05	7.581368e-03	1.785333e-04	3.490405e-03	3.650926e-03	1.785333e-04	-1.785333e-04	9.186582e-03	-5.976153e-03
106           	7.220843e-03	7.481399e-21	2.992981e-03	-7.482452e-05	8.142864e-03	1.805211e-04	3.535597e-03	3.685246e-03	1.805211e-04	-1.805211e-04	9.639354e-03	-6.646373e-03
107           	7.245200e-03	7.910670e-21	2.719211e-03	-6.798028e-05	8.725650e-03	1.811300e-04	3.554620e-03	3.690580e-03	1.811300e-04	-1.811300e-04	1.008526e-02	-7.366044e-03
108           	7.191509e-03	8.304352e-21	2.429378e-03	-6.073446e-05	9.218775e-03	1.797877e-04	3.535020e-03	3.656489e-03	1.797877e-04	-1.797877e-04	1.043346e-02	-8.004086e-03
109           	7.125585e-03	8.997591e-21	2.249399e-03	-5.623497e-05	9.476409e-03	1.781396e-04	3.506558e-03	3.619028e-03	1.781396e-04	-1.781396e-04	1.060111e-02	-8.351710e-03
110           	7.056753e-03	9.126696e-21	2.216693e-03	-5.541732e-05	9.430441e-03	1.764188e-04	3.472959e-03	3.583794e-03	1.764188e-04	-1.764188e-04	1.053879e-02	-8.322095e-03
111           	6.974205e-03	8.698774e-21	2.299805e-03	-5.749512e-05	9.124605e-03	1.743551e-04	3.429607e-03	3.544598e-03	1.743551e-04	-1.743551e-04	1.027451e-02	-7.974702e-03
112           	6.892130e-03	7.965403e-21	2.470863e-03	-6.177158e-05	8.641630e-03	1.723033e-04	3.384293e-03	3.507837e-03	1.723033e-04	-1.723033e-04	9.877061e-03	-7.406198e-03
113           	6.845202e-03	7.122748e-21	2.706403e-03	-6.766007e-05	8.090359e-03	1.711300e-04	3.354941e-03	3.490261e-03	1.711300e-04	-1.711300e-04	9.443560e-03	-6.737157e-03
114           	6.839634e-03	6.344953e-21	2.965938e-03	-7.414846e-05	7.563137e-03	1.709908e-04	3.345668e-03	3.493965e-03	1.709908e-04	-1.709908e-04	9.046106e-03	-6.080168e-03
115           	6.874578e-03	6.271351e-21	3.192314e-03	-7.980785e-05	7.169919e-03	1.718644e-04	3.357481e-03	3.517097e-03	1.718644e-04	-1.718644e-04	8.766076e-03	-5.573762e-03
116           	6.930513e-03	6.398224e-21	3.320806e-03	-8.302016e-05	7.004197e-03	1.732628e-04	3.382236e-03	3.548277e-03	1.732628e-04	-1.732628e-04	8.664600e-03	-5.343794e-03
117           	7.015029e-03	6.720085e-21	3.316100e-03	-8.290251e-05	7.153110e-03	1.753757e-04	3.424612e-03	3.590417e-03	1.753757e-04	-1.753757e-04	8.811160e-03	-5.495060e-03
118           	7.122655e-03	7.130295e-21	3.192716e-03	-7.981790e-05	7.578576e-03	1.780664e-04	3.481510e-03	3.641145e-03	1.780664e-04	-1.780664e-04	9.174934e-03	-5.982217e-03
119           	7.197693e-03	7.463033e-21	2.967670e-03	-7.419174e-05	8.147477e-03	1.799423e-04	3.524655e-03	3.673038e-03	1.799423e-04	-1.799423e-04	9.631312e-03	-6.663643e-03
120           	7.221160e-03	7.924586e-21	2.692958e-03	-6.732396e-05	8.732227e-03	1.805290e-04	3.543256e-03	3.677904e-03	1.805290e-04	-1.805290e-04	1.007871e-02	-7.385748e-03
121           	7.171600e-03	8.291811e-21	2.406735e-03	-6.016837e-05	9.227331e-03	1.792900e-04	3.525632e-03	3.645968e-03	1.792900e-04	-1.792900e-04	1.043070e-02	-8.023964e-03
122           	7.111256e-03	8.999452e-21	2.237602e-03	-5.594005e-05	9.473667e-03	1.777814e-04	3.499688e-03	3.611568e-03	1.777814e-04	-1.777814e-04	1.059247e-02	-8.354866e-03
123           	7.047611e-03	9.106383e-21	2.213291e-03	-5.533227e-05	9.419317e-03	1.761903e-04	3.468473e-03	3.579138e-03	1.761903e-04	-1.761903e-04	1.052596e-02	-8.312671e-03
124           	6.964225e-03	8.669009e-21	2.298436e-03	-5.746090e-05	9.108060e-03	1.741056e-04	3.424652e-03	3.539573e-03	1.741056e-04	-1.741056e-04	1.025728e-02	-7.958842e-03
125           	6.888724e-03	7.948449e-21	2.476046e-03	-6.190116e-05	8.624391e-03	1.722181e-04	3.382461e-03	3.506263e-03	1.722181e-04	-1.722181e-04	9.862415e-03	-7.386368e-03
126           	6.846504e-03	7.112979e-21	2.713259e-03	-6.783148e-05	8.078965e-03	1.711626e-04	3.355420e-03	3.491083e-03	1.711626e-04	-1.711626e-04	9.435595e-03	-6.722336e-03
127           	6.845506e-03	6.355518e-21	2.973839e-03	-7.434596e-05	7.558101e-03	1.711377e-04	3.348407e-03	3.497099e-03	1.711377e-04	-1.711377e-04	9.045021e-03	-6.071182e-03
128           	6.881048e-03	6.304440e-21	3.197295e-03	-7.993239e-05	7.171343e-03	1.720262e-04	3.360592e-03	3.520456e-03	1.720262e-04	-1.720262e-04	8.769990e-03	-5.572695e-03
129           	6.936550e-03	6.436123e-21	3.320171e-03	-8.300428e-05	7.015761e-03	1.734138e-04	3.385271e-03	3.551279e-03	1.734138e-04	-1.734138e-04	8.675847e-03	-5.355676e-03
130           	7.023338e-03	6.763973e-21	3.310205e-03	-8.275512e-05	7.179173e-03	1.755834e-04	3.428914e-03	3.594424e-03	1.755834e-04	-1.755834e-04	8.834275e-03	-5.524070e-03
131           	7.133222e-03	7.162886e-21	3.181562e-03	-7.953904e-05	7.619703e-03	1.783306e-04	3.487072e-03	3.646150e-03	1.783306e-04	-1.783306e-04	9.210484e-03	-6.028922e-03
132           	7.206993e-03	7.471540e-21	2.953364e-03	-7.383409e-05	8.192949e-03	1.801748e-04	3.529662e-03	3.677330e-03	1.801748e-04	-1.801748e-04	9.669631e-03	-6.716268e-03
133           	7.225171e-03	7.949315e-21	2.677854e-03	-6.694634e-05	8.770758e-03	1.806293e-04	3.545639e-03	3.679532e-03	1.806293e-04	-1.806293e-04	1.010968e-02	-7.431831e-03
134           	7.173091e-03	8.290365e-21	2.394153e-03	-5.985383e-05	9.257195e-03	1.793273e-04	3.526691e-03	3.646399e-03	1.793273e-04	-1.793273e-04	1.045427e-02	-8.060119e-03
135           	7.111188e-03	9.016545e-21	2.233371e-03	-5.583428e-05	9.483403e-03	1.777797e-04	3.499760e-03	3.611428e-03	1.777797e-04	-1.777797e-04	1.060009e-02	-8.366718e-03
136           	7.043834e-03	9.075091e-21	2.216092e-03	-5.540231e-05	9.409065e-03	1.760958e-04	3.466515e-03	3.577319e-03	1.760958e-04	-1.760958e-04	1.051711e-02	-8.301019e-03
137           	6.960152e-03	8.607439e-21	2.311201e-03	-5.778002e-05	9.077133e-03	1.740038e-04	3.422296e-03	3.537856e-03	1.740038e-04	-1.740038e-04	1.023273e-02	-7.921533e-03
138           	6.882832e-03	7.861458e-21	2.492511e-03	-6.231277e-05	8.582458e-03	1.720708e-04	3.379103e-03	3.503729e-03	1.720708e-04	-1.720708e-04	9.828714e-03	-7.336203e-03
139           	6.840705e-03	7.017440e-21	2.734627e-03	-6.836567e-05	8.026280e-03	1.710176e-04	3.351987e-03	3.488718e-03	1.710176e-04	-1.710176e-04	9.393594e-03	-6.658967e-03
140           	6.840726e-03	6.287814e-21	2.994468e-03	-7.486170e-05	7.507875e-03	1.710182e-04	3.345502e-03	3.495225e-03	1.710182e-04	-1.710182e-04	9.005109e-03	-6.010641e-03
141           	6.878641e-03	6.277677e-21	3.213345e-03	-8.033364e-05	7.133914e-03	1.719660e-04	3.358987e-03	3.519654e-03	1.719660e-04	-1.719660e-04	8.740587e-03	-5.527242e-03
142           	6.936974e-03	6.421885e-21	3.326998e-03	-8.317496e-05	7.001567e-03	1.734243e-04	3.385312e-03	3.551662e-03	1.734243e-04	-1.734243e-04	8.665067e-03	-5.338068e-03
143           	7.032514e-03	6.772944e-21	3.308783e-03	-8.271958e-05	7.197139e-03	1.758129e-04	3.433538e-03	3.598977e-03	1.758129e-04	-1.758129e-04	8.851531e-03	-5.542747e-03
144           	7.138529e-03	7.179430e-21	3.167015e-03	-7.917538e-05	7.656530e-03	1.784632e-04	3.490089e-03	3.648440e-03	1.784632e-04	-1.784632e-04	9.240038e-03	-6.073022e-03
145           	7.224999e-03	7.516940e-21	2.929172e-03	-7.322930e-05	8.273802e-03	1.806250e-04	3.539270e-03	3.685729e-03	1.806250e-04	-1.806250e-04	9.738388e-03	-6.809216e-03
146           	7.230117e-03	8.035899e-21	2.642608e-03	-6.606519e-05	8.851301e-03	1.807529e-04	3.548993e-03	3.681124e-03	1.807529e-04	-1.807529e-04	1.017260e-02	-7.529997e-03
147           	7.166926e-03	8.370896e-21	2.361586e-03	-5.903965e-05	9.314207e-03	1.791732e-04	3.524424e-03	3.642503e-03	1.791732e-04	-1.791732e-04	1.049500e-02	-8.133415e-03
148           	7.102774e-03	9.082729e-21	2.220310e-03	-5.550775e-05	9.497129e-03	1.775694e-04	3.495879e-03	3.606895e-03	1.775694e-04	-1.775694e-04	1.060728e-02	-8.386974e-03
149           	7.036297e-03	9.058160e-21	2.222416e-03	-5.556040e-05	9.385415e-03	1.759074e-04	3.462588e-03	3.573709e-03	1.759074e-04	-1.759074e-04	1.049662e-02	-8.274207e-03
150           	6.948768e-03	8.537543e-21	2.329165e-03	-5.822913e-05	9.021899e-03	1.737192e-04	3.416155e-03	3.532613e-03	1.737192e-04	-1.737192e-04	1.018648e-02	-7.857317e-03
151           	6.867390e-03	7.756852e-21	2.516889e-03	-6.292222e-05	8.506521e-03	1.716847e-04	3.370773e-03	3.496617e-03	1.716847e-04	-1.716847e-04	9.764965e-03	-7.248076e-03
152           	6.833005e-03	6.894133e-21	2.767147e-03	-6.917868e-05	7.948487e-03	1.708251e-04	3.347324e-03	3.485681e-03	1.708251e-04	-1.708251e-04	9.332061e-03	-6.564914e-03
153           	6.842922e-03	6.247471e-21	3.031343e-03	-7.578357e-05	7.438523e-03	1.710731e-04	3.345678e-03	3.497245e-03	1.710731e-04	-1.710731e-04	8.954194e-03	-5.922852e-03
154           	6.884359e-03	6.265978e-21	3.241053e-03	-8.102632e-05	7.087684e-03	1.721090e-04	3.361153e-03	3.523206e-03	1.721090e-04	-1.721090e-04	8.708210e-03	-5.467157e-03
155           	6.946225e-03	6.432653e-21	3.335254e-03	-8.338135e-05	6.999823e-03	1.736556e-04	3.389731e-03	3.556494e-03	1.736556e-04	-1.736556e-04	8.667450e-03	-5.332196e-03
156           	7.045850e-03	6.819448e-21	3.296848e-03	-8.242119e-05	7.242250e-03	1.761462e-04	3.440504e-03	3.605346e-03	1.761462e-04	-1.761462e-04	8.890674e-03	-5.593826e-03
157           	7.150172e-03	7.230852e-21	3.136627e-03	-7.841567e-05	7.735501e-03	1.787543e-04	3.496670e-03	3.653502e-03	1.787543e-04	-1.787543e-04	9.303814e-03	-6.167187e-03
158           	7.229717e-03	7.550315e-21	2.889412e-03	-7.223530e-05	8.359859e-03	1.807429e-04	3.542623e-03	3.687094e-03	1.807429e-04	-1.807429e-04	9.804565e-03	-6.915153e-03
159           	7.222112e-03	8.082129e-21	2.600844e-03	-6.502110e-05	8.921403e-03	1.805528e-04	3.546035e-03	3.676077e-03	1.805528e-04	-1.805528e-04	1.022183e-02	-7.620981e-03
160           	7.157805e-03	8.484523e-21	2.331140e-03	-5.827850e-05	9.361830e-03	1.789451e-04	3.520624e-03	3.637181e-03	1.789451e-04	-1.789451e-04	1.052740e-02	-8.196260e-03
161           	7.095360e-03	9.089968e-21	2.214146e-03	-5.535366e-05	9.498794e-03	1.773840e-04	3.492326e-03	3.603034e-03	1.773840e-04	-1.773840e-04	1.060587e-02	-8.391721e-03
162           	7.026614e-03	8.985972e-21	2.234841e-03	-5.587101e-05	9.344956e-03	1.756653e-04	3.457436e-03	3.569178e-03	1.756653e-04	-1.756653e-04	1.046238e-02	-8.227536e-03
163           	6.936956e-03	8.418607e-21	2.353377e-03	-5.883443e-05	8.952807e-03	1.734239e-04	3.409643e-03	3.527312e-03	1.734239e-04	-1.734239e-04	1.012950e-02	-7.776119e-03
164           	6.853363e-03	7.622971e-21	2.548189e-03	-6.370474e-05	8.418202e-03	1.713341e-04	3.362977e-03	3.490386e-03	1.713341e-04	-1.713341e-04	9.692297e-03	-7.144107e-03
165           	6.824880e-03	6.758094e-21	2.801437e-03	-7.003593e-05	7.864511e-03	1.706220e-04	3.342404e-03	3.482476e-03	1.706220e-04	-1.706220e-04	9.265230e-03	-6.463792e-03
166           	6.846292e-03	6.232077e-21	3.063936e-03	-7.659840e-05	7.378743e-03	1.711573e-04	3.346547e-03	3.499744e-03	1.711573e-04	-1.711573e-04	8.910711e-03	-5.846775e-03
167           	6.895658e-03	6.282292e-21	3.262883e-03	-8.157206e-05	7.063379e-03	1.723914e-04	3.366257e-03	3.529401e-03	1.723914e-04	-1.723914e-04	8.694820e-03	-5.431938e-03
168           	6.968251e-03	6.484538e-21	3.340824e-03	-8.352060e-05	7.026965e-03	1.742063e-04	3.400605e-03	3.567646e-03	1.742063e-04	-1.742063e-04	8.697377e-03	-5.356553e-03