# Force coefficients
# dragDir     : (1.000000e+00 0.000000e+00 0.000000e+00)
# sideDir     : (0.000000e+00 0.000000e+00 -1.000000e+00)
# liftDir     : (0.000000e+00 1.000000e+00 0.000000e+00)
# rollAxis    : (1.000000e+00 0.000000e+00 0.000000e+00)
# pitchAxis   : (0.000000e+00 0.000000e+00 -1.000000e+00)
# yawAxis     : (0.000000e+00 1.000000e+00 0.000000e+00)
# magUInf     : 2.000000e-02
# lRef        : 1.000000e-01
# Aref        : 1.000000e-01
# CofR        : (0.000000e+00 0.000000e+00 0.000000e+00)
#
# Time        	Cd            	Cs            	Cl            	CmRoll        	CmPitch       	CmYaw         	Cd(f)         	Cd(r)         	Cs(f)         	Cs(r)         	Cl(f)         	Cl(r)         
1             	5.084980e-03	1.016539e-20	-1.602265e-03	4.005663e-05	1.362582e-02	1.271245e-04	2.582547e-03	2.502433e-03	1.271245e-04	-1.271245e-04	1.282469e-02	-1.442696e-02
2             	1.293101e-02	-4.974545e-20	-5.034831e-03	1.258708e-04	3.635939e-02	3.232753e-04	6.591376e-03	6.339635e-03	3.232753e-04	-3.232753e-04	3.384198e-02	-3.887681e-02
3             	1.353212e-02	-6.607825e-20	-5.253943e-03	1.313486e-04	3.795244e-02	3.383029e-04	6.897407e-03	6.634710e-03	3.383029e-04	-3.383029e-04	3.532547e-02	-4.057941e-02
4             	1.209948e-02	-2.076149e-20	-4.789479e-03	1.197370e-04	3.385506e-02	3.024869e-04	6.169475e-03	5.930001e-03	3.024869e-04	-3.024869e-04	3.146032e-02	-3.624980e-02
5             	1.148443e-02	2.100928e-21	-4.730048e-03	1.182512e-04	3.229792e-02	2.871108e-04	5.860468e-03	5.623965e-03	2.871108e-04	-2.871108e-04	2.993290e-02	-3.466295e-02
6             	1.131208e-02	5.086799e-21	-4.750743e-03	1.187686e-04	3.191840e-02	2.828021e-04	5.774810e-03	5.537273e-03	2.828021e-04	-2.828021e-04	2.954303e-02	-3.429377e-02
7             	1.120591e-02	1.851661e-21	-4.642575e-03	1.160644e-04	3.148162e-02	2.801478e-04	5.719020e-03	5.486891e-03	2.801478e-04	-2.801478e-04	2.916033e-02	-3.380291e-02
8             	1.092869e-02	-1.820026e-21	-4.387628e-03	1.096907e-04	3.045346e-02	2.732172e-04	5.574034e-03	5.354652e-03	2.732172e-04	-2.732172e-04	2.825964e-02	-3.264727e-02
9             	1.066346e-02	-2.787555e-21	-4.063066e-03	1.015766e-04	2.934168e-02	2.665865e-04	5.433307e-03	5.230154e-03	2.665865e-04	-2.665865e-04	2.731014e-02	-3.137321e-02
10            	1.044863e-02	-3.100603e-21	-3.741244e-03	9.353109e-05	2.836738e-02	2.612159e-04	5.317849e-03	5.130786e-03	2.612159e-04	-2.612159e-04	2.649676e-02	-3.023801e-02
11            	1.019803e-02	-2.561197e-21	-3.403719e-03	8.509299e-05	2.729618e-02	2.549507e-04	5.184107e-03	5.013921e-03	2.549507e-04	-2.549507e-04	2.559432e-02	-2.899804e-02
12            	9.888908e-03	-1.856330e-21	-3.061306e-03	7.653266e-05	2.608444e-02	2.472227e-04	5.020987e-03	4.867921e-03	2.472227e-04	-2.472227e-04	2.455378e-02	-2.761509e-02
13            	9.583712e-03	-8.730273e-22	-2.744015e-03	6.860037e-05	2.491678e-02	2.395928e-04	4.860457e-03	4.723256e-03	2.395928e-04	-2.395928e-04	2.354477e-02	-2.628879e-02
14            	9.271531e-03	2.784437e-23	-2.431347e-03	6.078369e-05	2.373395e-02	2.317883e-04	4.696549e-03	4.574982e-03	2.317883e-04	-2.317883e-04	2.251828e-02	-2.494962e-02
15            	8.965218e-03	7.615815e-22	-2.136001e-03	5.340002e-05	2.258254e-02	2.241304e-04	4.536009e-03	4.429209e-03	2.241304e-04	-2.241304e-04	2.151454e-02	-2.365054e-02
16            	8.693021e-03	1.326530e-21	-1.877266e-03	4.693166e-05	2.155862e-02	2.173255e-04	4.393442e-03	4.299579e-03	2.173255e-04	-2.173255e-04	2.061999e-02	-2.249725e-02
17            	8.470463e-03	1.541868e-21	-1.658570e-03	4.146426e-05	2.070477e-02	2.117616e-04	4.276696e-03	4.193767e-03	2.117616e-04	-2.117616e-04	1.987548e-02	-2.153405e-02
18            	8.291913e-03	1.489528e-21	-1.485323e-03	3.713307e-05	2.002065e-02	2.072978e-04	4.183090e-03	4.108823e-03	2.072978e-04	-2.072978e-04	1.927799e-02	-2.076331e-02
19            	8.164652e-03	1.367400e-21	-1.367512e-03	3.418779e-05	1.954099e-02	2.041163e-04	4.116514e-03	4.048138e-03	2.041163e-04	-2.041163e-04	1.885723e-02	-2.022474e-02
20            	8.085517e-03	1.218731e-21	-1.305982e-03	3.264954e-05	1.926197e-02	2.021379e-04	4.075408e-03	4.010109e-03	2.021379e-04	-2.021379e-04	1.860897e-02	-1.991496e-02
21            	8.041542e-03	1.056767e-21	-1.293486e-03	3.233714e-05	1.914195e-02	2.010385e-04	4.053108e-03	3.988434e-03	2.010385e-04	-2.010385e-04	1.849520e-02	-1.978869e-02
22            	8.039156e-03	9.116845e-22	-1.340041e-03	3.350104e-05	1.921598e-02	2.009789e-04	4.053079e-03	3.986077e-03	2.009789e-04	-2.009789e-04	1.854596e-02	-1.988600e-02
23            	8.072742e-03	7.624985e-22	-1.422291e-03	3.555728e-05	1.942675e-02	2.018185e-04	4.071928e-03	4.000814e-03	2.018185e-04	-2.018185e-04	1.871560e-02	-2.013789e-02
24            	8.114497e-03	5.095789e-22	-1.535699e-03	3.839247e-05	1.970642e-02	2.028624e-04	4.095641e-03	4.018856e-03	2.028624e-04	-2.028624e-04	1.893857e-02	-2.047427e-02
25            	8.175322e-03	1.463450e-22	-1.674129e-03	4.185321e-05	2.007092e-02	2.043830e-04	4.129514e-03	4.045808e-03	2.043830e-04	-2.043830e-04	1.923386e-02	-2.090799e-02
26            	8.246749e-03	-3.173558e-22	-1.824992e-03	4.562479e-05	2.047979e-02	2.061687e-04	4.168999e-03	4.077750e-03	2.061687e-04	-2.061687e-04	1.956730e-02	-2.139229e-02
27            	8.320179e-03	-8.336727e-22	-1.980999e-03	4.952496e-05	2.090137e-02	2.080045e-04	4.209615e-03	4.110565e-03	2.080045e-04	-2.080045e-04	1.991087e-02	-2.189187e-02
28            	8.399546e-03	-1.211202e-21	-2.144939e-03	5.362348e-05	2.134934e-02	2.099887e-04	4.253397e-03	4.146150e-03	2.099887e-04	-2.099887e-04	2.027687e-02	-2.242181e-02
29            	8.490568e-03	-1.561363e-21	-2.306651e-03	5.766627e-05	2.182092e-02	2.122642e-04	4.302950e-03	4.187618e-03	2.122642e-04	-2.122642e-04	2.066760e-02	-2.297425e-02
30            	8.577918e-03	-1.863994e-21	-2.452042e-03	6.130104e-05	2.225994e-02	2.144480e-04	4.350260e-03	4.227658e-03	2.144480e-04	-2.144480e-04	2.103392e-02	-2.348597e-02
31            	8.669576e-03	-2.177527e-21	-2.571842e-03	6.429605e-05	2.266937e-02	2.167394e-04	4.399084e-03	4.270492e-03	2.167394e-04	-2.167394e-04	2.138345e-02	-2.395529e-02
32            	8.754857e-03	-2.552215e-21	-2.645162e-03	6.612906e-05	2.299063e-02	2.188714e-04	4.443557e-03	4.311299e-03	2.188714e-04	-2.188714e-04	2.166805e-02	-2.431321e-02
33            	8.835462e-03	-2.858199e-21	-2.662344e-03	6.655861e-05	2.321114e-02	2.208865e-04	4.484289e-03	4.351172e-03	2.208865e-04	-2.208865e-04	2.187997e-02	-2.454232e-02
34            	8.906203e-03	-3.004999e-21	-2.617676e-03	6.544190e-05	2.330755e-02	2.226551e-04	4.518543e-03	4.387659e-03	2.226551e-04	-2.226551e-04	2.199871e-02	-2.461639e-02
35            	8.956297e-03	-2.933382e-21	-2.512132e-03	6.280330e-05	2.325488e-02	2.239074e-04	4.540952e-03	4.415345e-03	2.239074e-04	-2.239074e-04	2.199881e-02	-2.451095e-02
36            	8.985167e-03	-2.595675e-21	-2.359315e-03	5.898288e-05	2.307171e-02	2.246292e-04	4.551566e-03	4.433601e-03	2.246292e-04	-2.246292e-04	2.189206e-02	-2.425137e-02
37            	9.007242e-03	-1.953493e-21	-2.172728e-03	5.431819e-05	2.280940e-02	2.251811e-04	4.557939e-03	4.449303e-03	2.251811e-04	-2.251811e-04	2.172304e-02	-2.389577e-02
38            	9.025185e-03	-1.129484e-21	-1.993105e-03	4.982762e-05	2.253891e-02	2.256296e-04	4.562420e-03	4.462765e-03	2.256296e-04	-2.256296e-04	2.154236e-02	-2.353546e-02
39            	9.056957e-03	-5.281314e-22	-1.856174e-03	4.640436e-05	2.236218e-02	2.264239e-04	4.574883e-03	4.482074e-03	2.264239e-04	-2.264239e-04	2.143409e-02	-2.329027e-02
40            	9.091971e-03	9.587766e-23	-1.798918e-03	4.497295e-05	2.232606e-02	2.272993e-04	4.590958e-03	4.501012e-03	2.272993e-04	-2.272993e-04	2.142660e-02	-2.322551e-02
41            	9.144232e-03	5.497085e-22	-1.835772e-03	4.589430e-05	2.248629e-02	2.286058e-04	4.618010e-03	4.526222e-03	2.286058e-04	-2.286058e-04	2.156841e-02	-2.340418e-02
42            	9.192744e-03	6.482562e-22	-1.939444e-03	4.848610e-05	2.274362e-02	2.298186e-04	4.644858e-03	4.547886e-03	2.298186e-04	-2.298186e-04	2.177390e-02	-2.371334e-02
43            	9.244290e-03	2.945980e-22	-2.099401e-03	5.248502e-05	2.309194e-02	2.311073e-04	4.674630e-03	4.569660e-03	2.311073e-04	-2.311073e-04	2.204224e-02	-2.414164e-02
44            	9.329256e-03	1.429092e-22	-2.335678e-03	5.839196e-05	2.363134e-02	2.332314e-04	4.723020e-03	4.606236e-03	2.332314e-04	-2.332314e-04	2.246350e-02	-2.479918e-02
45            	9.524641e-03	1.460000e-22	-2.678938e-03	6.697345e-05	2.459138e-02	2.381160e-04	4.829294e-03	4.695347e-03	2.381160e-04	-2.381160e-04	2.325191e-02	-2.593085e-02
46            	9.833654e-03	-2.354600e-22	-3.104444e-03	7.761111e-05	2.595048e-02	2.458414e-04	4.994438e-03	4.839216e-03	2.458414e-04	-2.458414e-04	2.439826e-02	-2.750270e-02
47            	1.020415e-02	-4.994977e-22	-3.559218e-03	8.898044e-05	2.751899e-02	2.551038e-04	5.191057e-03	5.013096e-03	2.551038e-04	-2.551038e-04	2.573939e-02	-2.929860e-02
48            	1.060630e-02	-1.098158e-21	-3.966145e-03	9.915362e-05	2.911022e-02	2.651575e-04	5.402305e-03	5.203997e-03	2.651575e-04	-2.651575e-04	2.712714e-02	-3.109329e-02
49            	1.098540e-02	-1.535893e-21	-4.223111e-03	1.055778e-04	3.043212e-02	2.746349e-04	5.598276e-03	5.387120e-03	2.746349e-04	-2.746349e-04	2.832057e-02	-3.254368e-02
50            	1.129044e-02	-1.593287e-21	-4.268169e-03	1.067042e-04	3.126397e-02	2.822611e-04	5.751926e-03	5.538518e-03	2.822611e-04	-2.822611e-04	2.912988e-02	-3.339805e-02
51            	1.145119e-02	-1.218426e-21	-4.024256e-03	1.006064e-04	3.129323e-02	2.862798e-04	5.826202e-03	5.624989e-03	2.862798e-04	-2.862798e-04	2.928110e-02	-3.330536e-02
52            	1.138912e-02	1.403247e-22	-3.622271e-03	9.055677e-05	3.054247e-02	2.847281e-04	5.785119e-03	5.604005e-03	2.847281e-04	-2.847281e-04	2.873134e-02	-3.235361e-02
53            	1.124381e-02	1.888162e-21	-3.138785e-03	7.846963e-05	2.942176e-02	2.810952e-04	5.700374e-03	5.543435e-03	2.810952e-04	-2.810952e-04	2.785236e-02	-3.099115e-02
54            	1.099153e-02	3.037497e-21	-2.645007e-03	6.612517e-05	2.801098e-02	2.747882e-04	5.561889e-03	5.429638e-03	2.747882e-04	-2.747882e-04	2.668848e-02	-2.933348e-02
55            	1.067326e-02	3.475352e-21	-2.287329e-03	5.718322e-05	2.668909e-02	2.668314e-04	5.393812e-03	5.279445e-03	2.668314e-04	-2.668314e-04	2.554543e-02	-2.783276e-02
56            	1.037268e-02	3.715582e-21	-2.134920e-03	5.337299e-05	2.574936e-02	2.593171e-04	5.239715e-03	5.132969e-03	2.593171e-04	-2.593171e-04	2.468190e-02	-2.681682e-02
57            	1.016687e-02	3.412743e-21	-2.164472e-03	5.411181e-05	2.531288e-02	2.541717e-04	5.137545e-03	5.029322e-03	2.541717e-04	-2.541717e-04	2.423064e-02	-2.639511e-02
58            	1.002097e-02	2.751046e-21	-2.330399e-03	5.825999e-05	2.521345e-02	2.505241e-04	5.068743e-03	4.952223e-03	2.505241e-04	-2.505241e-04	2.404825e-02	-2.637865e-02
59            	9.981843e-03	2.034223e-21	-2.636397e-03	6.590991e-05	2.557333e-02	2.495461e-04	5.056832e-03	4.925012e-03	2.495461e-04	-2.495461e-04	2.425513e-02	-2.689152e-02
60            	1.008666e-02	1.426579e-21	-3.055500e-03	7.638751e-05	2.644271e-02	2.521665e-04	5.119718e-03	4.966943e-03	2.521665e-04	-2.521665e-04	2.491496e-02	-2.797046e-02
61            	1.035513e-02	8.475069e-22	-3.592587e-03	8.981468e-05	2.788032e-02	2.588784e-04	5.267382e-03	5.087753e-03	2.588784e-04	-2.588784e-04	2.608403e-02	-2.967662e-02
62            	1.077247e-02	2.150234e-22	-4.176200e-03	1.044050e-04	2.976295e-02	2.693117e-04	5.490638e-03	5.281828e-03	2.693117e-04	-2.693117e-04	2.767485e-02	-3.185105e-02
63            	1.117549e-02	-7.224070e-22	-4.604305e-03	1.151076e-04	3.139877e-02	2.793872e-04	5.702851e-03	5.472636e-03	2.793872e-04	-2.793872e-04	2.909661e-02	-3.370092e-02
64            	1.162005e-02	-1.203484e-21	-4.855832e-03	1.213958e-04	3.287328e-02	2.905012e-04	5.931419e-03	5.688628e-03	2.905012e-04	-2.905012e-04	3.044536e-02	-3.530120e-02
65            	1.188877e-02	-1.315546e-21	-4.804358e-03	1.201089e-04	3.347832e-02	2.972192e-04	6.064492e-03	5.824274e-03	2.972192e-04	-2.972192e-04	3.107614e-02	-3.588049e-02
66            	1.194982e-02	-9.077741e-22	-4.473362e-03	1.118341e-04	3.316271e-02	2.987456e-04	6.086746e-03	5.863078e-03	2.987456e-04	-2.987456e-04	3.092602e-02	-3.539939e-02
67            	1.186300e-02	5.739365e-22	-4.004741e-03	1.001185e-04	3.225672e-02	2.965750e-04	6.031620e-03	5.831382e-03	2.965750e-04	-2.965750e-04	3.025435e-02	-3.425909e-02
68            	1.163500e-02	2.476568e-21	-3.356852e-03	8.392130e-05	3.067619e-02	2.908750e-04	5.901421e-03	5.733578e-03	2.908750e-04	-2.908750e-04	2.899776e-02	-3.235461e-02
69            	1.126897e-02	4.115639e-21	-2.742824e-03	6.857060e-05	2.881041e-02	2.817243e-04	5.703057e-03	5.565916e-03	2.817243e-04	-2.817243e-04	2.743900e-02	-3.018183e-02
70            	1.096187e-02	4.558230e-21	-2.378054e-03	5.945135e-05	2.749467e-02	2.740467e-04	5.540386e-03	5.421483e-03	2.740467e-04	-2.740467e-04	2.630564e-02	-2.868370e-02
71            	1.070178e-02	4.624832e-21	-2.230102e-03	5.575256e-05	2.664535e-02	2.675445e-04	5.406642e-03	5.295137e-03	2.675445e-04	-2.675445e-04	2.553030e-02	-2.776040e-02
72            	1.048916e-02	4.349502e-21	-2.250419e-03	5.626048e-05	2.616944e-02	2.622291e-04	5.300842e-03	5.188321e-03	2.622291e-04	-2.622291e-04	2.504423e-02	-2.729465e-02
73            	1.030528e-02	3.820107e-21	-2.407864e-03	6.019659e-05	2.596342e-02	2.576321e-04	5.212839e-03	5.092446e-03	2.576321e-04	-2.576321e-04	2.475948e-02	-2.716735e-02
74            	1.024426e-02	3.106597e-21	-2.729844e-03	6.824609e-05	2.629405e-02	2.561065e-04	5.190375e-03	5.053883e-03	2.561065e-04	-2.561065e-04	2.492913e-02	-2.765898e-02
75            	1.033355e-02	2.398000e-21	-3.175152e-03	7.937880e-05	2.716715e-02	2.583387e-04	5.246154e-03	5.087396e-03	2.583387e-04	-2.583387e-04	2.557958e-02	-2.875473e-02
76            	1.057107e-02	1.452864e-21	-3.732524e-03	9.331309e-05	2.856436e-02	2.642768e-04	5.378848e-03	5.192222e-03	2.642768e-04	-2.642768e-04	2.669810e-02	-3.043062e-02
77            	1.099909e-02	6.014635e-22	-4.354513e-03	1.088628e-04	3.052906e-02	2.749773e-04	5.608409e-03	5.390684e-03	2.749773e-04	-2.749773e-04	2.835180e-02	-3.270631e-02
78            	1.147925e-02	-3.302004e-22	-4.863228e-03	1.215807e-04	3.246538e-02	2.869812e-04	5.861204e-03	5.618043e-03	2.869812e-04	-2.869812e-04	3.003376e-02	-3.489699e-02
79            	1.181833e-02	-1.483606e-21	-5.100200e-03	1.275050e-04	3.368992e-02	2.954583e-04	6.036670e-03	5.781660e-03	2.954583e-04	-2.954583e-04	3.113982e-02	-3.624002e-02
80            	1.218962e-02	-1.649956e-21	-5.076894e-03	1.269224e-04	3.457691e-02	3.047405e-04	6.221733e-03	5.967889e-03	3.047405e-04	-3.047405e-04	3.203846e-02	-3.711536e-02
81            	1.228084e-02	-1.242270e-21	-4.735203e-03	1.183801e-04	3.432432e-02	3.070211e-04	6.258803e-03	6.022042e-03	3.070211e-04	-3.070211e-04	3.195672e-02	-3.669192e-02
82            	1.216459e-02	-1.535031e-22	-4.180247e-03	1.045062e-04	3.321346e-02	3.041147e-04	6.186799e-03	5.977787e-03	3.041147e-04	-3.041147e-04	3.112333e-02	-3.530358e-02
83            	1.192077e-02	2.099078e-21	-3.601619e-03	9.004048e-05	3.172755e-02	2.980192e-04	6.050425e-03	5.870344e-03	2.980192e-04	-2.980192e-04	2.992674e-02	-3.352836e-02
84            	1.155617e-02	3.303547e-21	-2.926980e-03	7.317451e-05	2.976259e-02	2.889042e-04	5.851259e-03	5.704910e-03	2.889042e-04	-2.889042e-04	2.829910e-02	-3.122608e-02
85            	1.118313e-02	4.482972e-21	-2.480465e-03	6.201163e-05	2.816618e-02	2.795781e-04	5.653575e-03	5.529551e-03	2.795781e-04	-2.795781e-04	2.692595e-02	-2.940641e-02
86            	1.088260e-02	4.781460e-21	-2.271436e-03	5.678590e-05	2.712784e-02	2.720649e-04	5.498085e-03	5.384513e-03	2.720649e-04	-2.720649e-04	2.599213e-02	-2.826356e-02
87            	1.065092e-02	4.548339e-21	-2.249665e-03	5.624163e-05	2.654419e-02	2.662729e-04	5.381700e-03	5.269217e-03	2.662729e-04	-2.662729e-04	2.541935e-02	-2.766902e-02
88            	1.044381e-02	4.026974e-21	-2.367204e-03	5.918011e-05	2.622081e-02	2.610953e-04	5.281086e-03	5.162726e-03	2.610953e-04	-2.610953e-04	2.503721e-02	-2.740441e-02
89            	1.034975e-02	3.306472e-21	-2.658937e-03	6.647344e-05	2.642386e-02	2.587438e-04	5.241349e-03	5.108402e-03	2.587438e-04	-2.587438e-04	2.509439e-02	-2.775333e-02
90            	1.039041e-02	2.562894e-21	-3.093275e-03	7.733188e-05	2.716401e-02	2.597602e-04	5.272536e-03	5.117873e-03	2.597602e-04	-2.597602e-04	2.561738e-02	-2.871065e-02
91            	1.059803e-02	1.715611e-21	-3.659445e-03	9.148613e-05	2.850314e-02	2.649508e-04	5.390501e-03	5.207529e-03	2.649508e-04	-2.649508e-04	2.667342e-02	-3.033287e-02
92            	1.099373e-02	7.483535e-22	-4.295590e-03	1.073897e-04	3.040707e-02	2.748433e-04	5.604256e-03	5.389476e-03	2.748433e-04	-2.748433e-04	2.825928e-02	-3.255487e-02
93            	1.148223e-02	-7.126529e-23	-4.866065e-03	1.216516e-04	3.245178e-02	2.870558e-04	5.862768e-03	5.619465e-03	2.870558e-04	-2.870558e-04	3.001875e-02	-3.488481e-02
94            	1.185043e-02	-1.371304e-21	-5.180822e-03	1.295205e-04	3.385936e-02	2.962608e-04	6.054737e-03	5.795695e-03	2.962608e-04	-2.962608e-04	3.126895e-02	-3.644977e-02
95            	1.226574e-02	-1.678324e-21	-5.242601e-03	1.310650e-04	3.498612e-02	3.066434e-04	6.263933e-03	6.001803e-03	3.066434e-04	-3.066434e-04	3.236482e-02	-3.760742e-02
96            	1.241595e-02	-1.412383e-21	-4.976842e-03	1.244211e-04	3.499704e-02	3.103986e-04	6.332394e-03	6.083552e-03	3.103986e-04	-3.103986e-04	3.250862e-02	-3.748546e-02
97            	1.234803e-02	-6.016822e-22	-4.463305e-03	1.115826e-04	3.408268e-02	3.087007e-04	6.285598e-03	6.062432e-03	3.087007e-04	-3.087007e-04	3.185102e-02	-3.631433e-02
98            	1.212933e-02	1.349734e-21	-3.874360e-03	9.685900e-05	3.265555e-02	3.032333e-04	6.161525e-03	5.967807e-03	3.032333e-04	-3.032333e-04	3.071837e-02	-3.459273e-02
99            	1.177010e-02	3.121005e-21	-3.154451e-03	7.886127e-05	3.063529e-02	2.942525e-04	5.963912e-03	5.806189e-03	2.942525e-04	-2.942525e-04	2.905806e-02	-3.221251e-02
100           	1.136154e-02	4.364001e-21	-2.605768e-03	6.514420e-05	2.878634e-02	2.840384e-04	5.745912e-03	5.615624e-03	2.840384e-04	-2.840384e-04	2.748345e-02	-3.008922e-02
101           	1.104836e-02	4.846585e-21	-2.315093e-03	5.787733e-05	2.758121e-02	2.762090e-04	5.582057e-03	5.466302e-03	2.762090e-04	-2.762090e-04	2.642366e-02	-2.873876e-02
102           	1.078871e-02	4.714791e-21	-2.230471e-03	5.576177e-05	2.683397e-02	2.697178e-04	5.450117e-03	5.338593e-03	2.697178e-04	-2.697178e-04	2.571873e-02	-2.794920e-02
103           	1.058170e-02	4.284972e-21	-2.308941e-03	5.772353e-05	2.645371e-02	2.645426e-04	5.348576e-03	5.233129e-03	2.645426e-04	-2.645426e-04	2.529924e-02	-2.760818e-02
104           	1.043784e-02	3.570286e-21	-2.543403e-03	6.358507e-05	2.645047e-02	2.609460e-04	5.282506e-03	5.155336e-03	2.609460e-04	-2.609460e-04	2.517877e-02	-2.772218e-02
105           	1.042449e-02	2.822397e-21	-2.936008e-03	7.340020e-05	2.699891e-02	2.606122e-04	5.285645e-03	5.138845e-03	2.606122e-04	-2.606122e-04	2.553090e-02	-2.846691e-02
106           	1.054220e-02	2.095540e-21	-3.473836e-03	8.684591e-05	2.808415e-02	2.635549e-04	5.357945e-03	5.184253e-03	2.635549e-04	-2.635549e-04	2.634723e-02	-2.982107e-02
107           	1.092755e-02	1.092716e-21	-4.128019e-03	1.032005e-04	2.998033e-02	2.731886e-04	5.566973e-03	5.360572e-03	2.731886e-04	-2.731886e-04	2.791632e-02	-3.204434e-02
108           	1.138270e-02	3.411863e-22	-4.741517e-03	1.185379e-04	3.201063e-02	2.845674e-04	5.809886e-03	5.572810e-03	2.845674e-04	-2.845674e-04	2.963987e-02	-3.438139e-02
109           	1.176095e-02	-9.299019e-22	-5.133454e-03	1.283364e-04	3.355008e-02	2.940236e-04	6.008809e-03	5.752137e-03	2.940236e-04	-2.940236e-04	3.098335e-02	-3.611680e-02
110           	1.221652e-02	-1.470511e-21	-5.312032e-03	1.328008e-04	3.494874e-02	3.054130e-04	6.241062e-03	5.975460e-03	3.054130e-04	-3.054130e-04	3.229273e-02	-3.760476e-02
111           	1.243167e-02	-1.717128e-21	-5.148111e-03	1.287028e-04	3.526577e-02	3.107918e-04	6.344539e-03	6.087134e-03	3.107918e-04	-3.107918e-04	3.269171e-02	-3.783982e-02
112           	1.241647e-02	-1.242413e-21	-4.712255e-03	1.178064e-04	3.461250e-02	3.104118e-04	6.326043e-03	6.090430e-03	3.104118e-04	-3.104118e-04	3.225637e-02	-3.696863e-02
113           	1.220243e-02	2.006341e-22	-4.084018e-03	1.021005e-04	3.315509e-02	3.050607e-04	6.203314e-03	5.999113e-03	3.050607e-04	-3.050607e-04	3.111308e-02	-3.519710e-02
114           	1.191193e-02	2.753155e-21	-3.463932e-03	8.659829e-05	3.148312e-02	2.977981e-04	6.042561e-03	5.869365e-03	2.977981e-04	-2.977981e-04	2.975116e-02	-3.321509e-02
115           	1.155146e-02	3.559671e-21	-2.813845e-03	7.034611e-05	2.956899e-02	2.887865e-04	5.846076e-03	5.705384e-03	2.887865e-04	-2.887865e-04	2.816207e-02	-3.097592e-02
116           	1.118147e-02	4.619145e-21	-2.396341e-03	5.990854e-05	2.802431e-02	2.795369e-04	5.650646e-03	5.530829e-03	2.795369e-04	-2.795369e-04	2.682614e-02	-2.922248e-02
117           	1.090318e-02	4.840086e-21	-2.233623e-03	5.584057e-05	2.710771e-02	2.725794e-04	5.507428e-03	5.395747e-03	2.725794e-04	-2.725794e-04	2.599090e-02	-2.822452e-02
118           	1.068912e-02	4.535520e-21	-2.250685e-03	5.626713e-05	2.662546e-02	2.672280e-04	5.400827e-03	5.288293e-03	2.672280e-04	-2.672280e-04	2.550011e-02	-2.775080e-02
119           	1.048152e-02	3.950372e-21	-2.396016e-03	5.990041e-05	2.633972e-02	2.620380e-04	5.300660e-03	5.180860e-03	2.620380e-04	-2.620380e-04	2.514171e-02	-2.753773e-02
120           	1.040305e-02	3.170556e-21	-2.722242e-03	6.805605e-05	2.663150e-02	2.600763e-04	5.269582e-03	5.133470e-03	2.600763e-04	-2.600763e-04	2.527038e-02	-2.799262e-02
121           	1.047343e-02	2.417603e-21	-3.191050e-03	7.977625e-05	2.749380e-02	2.618358e-04	5.316493e-03	5.156940e-03	2.618358e-04	-2.618358e-04	2.589827e-02	-2.908933e-02
122           	1.070455e-02	1.553296e-21	-3.780843e-03	9.452108e-05	2.892635e-02	2.676139e-04	5.446798e-03	5.257756e-03	2.676139e-04	-2.676139e-04	2.703593e-02	-3.081677e-02
123           	1.111885e-02	7.348507e-22	-4.429422e-03	1.107355e-04	3.089699e-02	2.779712e-04	5.670160e-03	5.448689e-03	2.779712e-04	-2.779712e-04	2.868228e-02	-3.311170e-02
124           	1.160523e-02	-2.181314e-22	-4.979578e-03	1.244895e-04	3.290793e-02	2.901308e-04	5.927105e-03	5.678126e-03	2.901308e-04	-2.901308e-04	3.041814e-02	-3.539772e-02
125           	1.193938e-02	-1.507345e-21	-5.254791e-03	1.313698e-04	3.417876e-02	2.984844e-04	6.101057e-03	5.838318e-03	2.984844e-04	-2.984844e-04	3.155136e-02	-3.680615e-02
126           	1.234316e-02	-1.774557e-21	-5.291259e-03	1.322815e-04	3.523984e-02	3.085790e-04	6.303861e-03	6.039298e-03	3.085790e-04	-3.085790e-04	3.259421e-02	-3.788547e-02
127           	1.247397e-02	-1.581169e-21	-5.000857e-03	1.250214e-04	3.516144e-02	3.118493e-04	6.362008e-03	6.111965e-03	3.118493e-04	-3.118493e-04	3.266101e-02	-3.766187e-02
128           	1.238401e-02	-7.328418e-22	-4.467752e-03	1.116938e-04	3.416490e-02	3.096002e-04	6.303698e-03	6.080310e-03	3.096002e-04	-3.096002e-04	3.193103e-02	-3.639878e-02
129           	1.215852e-02	1.271301e-21	-3.876418e-03	9.691045e-05	3.272222e-02	3.039631e-04	6.176172e-03	5.982351e-03	3.039631e-04	-3.039631e-04	3.078402e-02	-3.466043e-02
130           	1.178357e-02	3.046389e-21	-3.145860e-03	7.864650e-05	3.065294e-02	2.945891e-04	5.970429e-03	5.813136e-03	2.945891e-04	-2.945891e-04	2.908001e-02	-3.222587e-02
131           	1.138431e-02	4.440828e-21	-2.599543e-03	6.498857e-05	2.882637e-02	2.846077e-04	5.757142e-03	5.627165e-03	2.846077e-04	-2.846077e-04	2.752660e-02	-3.012614e-02
132           	1.107597e-02	4.811293e-21	-2.315716e-03	5.789290e-05	2.764274e-02	2.768993e-04	5.595879e-03	5.480094e-03	2.768993e-04	-2.768993e-04	2.648488e-02	-2.880060e-02
133           	1.080599e-02	4.665197e-21	-2.232181e-03	5.580453e-05	2.687222e-02	2.701497e-04	5.458799e-03	5.347190e-03	2.701497e-04	-2.701497e-04	2.575613e-02	-2.798831e-02
134           	1.059835e-02	4.260673e-21	-2.317084e-03	5.792709e-05	2.650130e-02	2.649586e-04	5.357100e-03	5.241246e-03	2.649586e-04	-2.649586e-04	2.534276e-02	-2.765984e-02
135           	1.044951e-02	3.657123e-21	-2.553245e-03	6.383112e-05	2.648992e-02	2.612377e-04	5.288585e-03	5.160923e-03	2.612377e-04	-2.612377e-04	2.521330e-02	-2.776654e-02
136           	1.043081e-02	2.822180e-21	-2.946702e-03	7.366754e-05	2.702750e-02	2.607702e-04	5.289072e-03	5.141737e-03	2.607702e-04	-2.607702e-04	2.555415e-02	-2.850085e-02
137           	1.054938e-02	2.030636e-21	-3.486914e-03	8.717285e-05	2.811801e-02	2.637344e-04	5.361862e-03	5.187516e-03	2.637344e-04	-2.637344e-04	2.637456e-02	-2.986147e-02
138           	1.094256e-02	1.013379e-21	-4.145859e-03	1.036465e-04	3.003871e-02	2.735640e-04	5.574926e-03	5.367633e-03	2.735640e-04	-2.735640e-04	2.796578e-02	-3.211164e-02
139           	1.140146e-02	2.683698e-22	-4.762949e-03	1.190737e-04	3.208318e-02	2.850365e-04	5.819804e-03	5.581656e-03	2.850365e-04	-2.850365e-04	2.970171e-02	-3.446466e-02
140           	1.178088e-02	-1.001675e-21	-5.157137e-03	1.289284e-04	3.362896e-02	2.945219e-04	6.019367e-03	5.761510e-03	2.945219e-04	-2.945219e-04	3.105039e-02	-3.620753e-02
141           	1.223600e-02	-1.532334e-21	-5.337490e-03	1.334372e-04	3.503021e-02	3.059000e-04	6.251437e-03	5.984563e-03	3.059000e-04	-3.059000e-04	3.236146e-02	-3.769895e-02
142           	1.245333e-02	-1.747889e-21	-5.175193e-03	1.293798e-04	3.535537e-02	3.113333e-04	6.356046e-03	6.097286e-03	3.113333e-04	-3.113333e-04	3.276777e-02	-3.794297e-02
143           	1.243735e-02	-1.277603e-21	-4.739300e-03	1.184825e-04	3.470178e-02	3.109338e-04	6.337158e-03	6.100193e-03	3.109338e-04	-3.109338e-04	3.233213e-02	-3.707143e-02
144           	1.222152e-02	1.513291e-22	-4.108259e-03	1.027065e-04	3.323740e-02	3.055379e-04	6.213465e-03	6.008052e-03	3.055379e-04	-3.055379e-04	3.118327e-02	-3.529153e-02
145           	1.192931e-02	2.719641e-21	-3.484920e-03	8.712300e-05	3.155784e-02	2.982328e-04	6.051778e-03	5.877532e-03	2.982328e-04	-2.982328e-04	2.981538e-02	-3.330030e-02
146           	1.156633e-02	3.561252e-21	-2.825539e-03	7.063848e-05	2.962240e-02	2.891582e-04	5.853802e-03	5.712525e-03	2.891582e-04	-2.891582e-04	2.820963e-02	-3.103517e-02
147           	1.119491e-02	4.625434e-21	-2.400014e-03	6.000036e-05	2.806098e-02	2.798727e-04	5.657454e-03	5.537453e-03	2.798727e-04	-2.798727e-04	2.686097e-02	-2.926099e-02
148           	1.091551e-02	4.864416e-21	-2.231197e-03	5.577993e-05	2.713181e-02	2.728879e-04	5.513537e-03	5.401978e-03	2.728879e-04	-2.728879e-04	2.601621e-02	-2.824741e-02
149           	1.070034e-02	4.568730e-21	-2.244128e-03	5.610321e-05	2.664054e-02	2.675086e-04	5.406275e-03	5.294068e-03	2.675086e-04	-2.675086e-04	2.551847e-02	-2.776260e-02
150           	1.049152e-02	3.984243e-21	-2.386678e-03	5.966695e-05	2.634757e-02	2.622879e-04	5.305425e-03	5.186091e-03	2.622879e-04	-2.622879e-04	2.515423e-02	-2.754090e-02
151           	1.041074e-02	3.194110e-21	-2.710773e-03	6.776932e-05	2.663046e-02	2.602685e-04	5.273140e-03	5.137602e-03	2.602685e-04	-2.602685e-04	2.527507e-02	-2.798585e-02
152           	1.047727e-02	2.431577e-21	-3.178643e-03	7.946607e-05	2.748234e-02	2.619318e-04	5.318103e-03	5.159171e-03	2.619318e-04	-2.619318e-04	2.589302e-02	-2.907166e-02
153           	1.070496e-02	1.582771e-21	-3.768314e-03	9.420786e-05	2.890652e-02	2.676240e-04	5.446688e-03	5.258272e-03	2.676240e-04	-2.676240e-04	2.702237e-02	-3.079068e-02
154           	1.111626e-02	7.531178e-22	-4.419108e-03	1.104777e-04	3.087290e-02	2.779064e-04	5.668606e-03	5.447651e-03	2.779064e-04	-2.779064e-04	2.866335e-02	-3.308245e-02
155           	1.160306e-02	-1.897417e-22	-4.974237e-03	1.243559e-04	3.289138e-02	2.900765e-04	5.925887e-03	5.677175e-03	2.900765e-04	-2.900765e-04	3.040427e-02	-3.537850e-02
156           	1.193916e-02	-1.486297e-21	-5.257017e-03	1.314254e-04	3.417801e-02	2.984789e-04	6.101004e-03	5.838153e-03	2.984789e-04	-2.984789e-04	3.154951e-02	-3.680652e-02
157           	1.234395e-02	-1.770895e-21	-5.301973e-03	1.325493e-04	3.525442e-02	3.085987e-04	6.304523e-03	6.039424e-03	3.085987e-04	-3.085987e-04	3.260344e-02	-3.790541e-02
158           	1.248182e-02	-1.601541e-21	-5.021417e-03	1.255354e-04	3.520801e-02	3.120454e-04	6.366444e-03	6.115373e-03	3.120454e-04	-3.120454e-04	3.269730e-02	-3.771872e-02
159           	1.239686e-02	-7.852406e-22	-4.494339e-03	1.123585e-04	3.423440e-02	3.099215e-04	6.310788e-03	6.086071e-03	3.099215e-04	-3.099215e-04	3.198723e-02	-3.648157e-02
160           	1.217395e-02	1.176169e-21	-3.903209e-03	9.758022e-05	3.280059e-02	3.043488e-04	6.184557e-03	5.989397e-03	3.043488e-04	-3.043488e-04	3.084899e-02	-3.475220e-02
161           	1.180101e-02	2.995591e-21	-3.168721e-03	7.921803e-05	3.073088e-02	2.950252e-04	5.979722e-03	5.821286e-03	2.950252e-04	-2.950252e-04	2.914652e-02	-3.231524e-02
162           	1.139864e-02	4.410174e-21	-2.610971e-03	6.527429e-05	2.887794e-02	2.849659e-04	5.764592e-03	5.634043e-03	2.849659e-04	-2.849659e-04	2.757246e-02	-3.018343e-02
163           	1.108792e-02	4.794395e-21	-2.318500e-03	5.796249e-05	2.767458e-02	2.771981e-04	5.601924e-03	5.485999e-03	2.771981e-04	-2.771981e-04	2.651533e-02	-2.883383e-02
164           	1.079725e-02	4.658168e-21	-2.228131e-03	5.570326e-05	2.684031e-02	2.699313e-04	5.454329e-03	5.342923e-03	2.699313e-04	-2.699313e-04	2.572624e-02	-2.795437e-02
165           	1.062362e-02	4.275090e-21	-2.334706e-03	5.836765e-05	2.658493e-02	2.655906e-04	5.370180e-03	5.253445e-03	2.655906e-04	-2.655906e-04	2.541757e-02	-2.775228e-02
166           	1.045790e-02	3.606894e-21	-2.557528e-03	6.393821e-05	2.651447e-02	2.614474e-04	5.292886e-03	5.165010e-03	2.614474e-04	-2.614474e-04	2.523570e-02	-2.779323e-02
167           	1.042324e-02	2.754575e-21	-2.941675e-03	7.354188e-05	2.700121e-02	2.605810e-04	5.285163e-03	5.138079e-03	2.605810e-04	-2.605810e-04	2.553037e-02	-2.847204e-02
168           	1.057719e-02	2.020218e-21	-3.454097e-03	8.635243e-05	2.812809e-02	2.644298e-04	5.374948e-03	5.202243e-03	2.644298e-04	-2.644298e-04	2.640104e-02	-2.985514e-02