# Force coefficients
# dragDir     : (1.000000e+00 0.000000e+00 0.000000e+00)
# sideDir     : (0.000000e+00 0.000000e+00 -1.000000e+00)
# liftDir     : (0.000000e+00 1.000000e+00 0.000000e+00)
# rollAxis    : (1.000000e+00 0.000000e+00 0.000000e+00)
# pitchAxis   : (0.000000e+00 0.000000e+00 -1.000000e+00)
# yawAxis     : (0.000000e+00 1.000000e+00 0.000000e+00)
# magUInf     : 2.000000e-02
# lRef        : 1.000000e-01
# Aref        : 1.000000e-01
# CofR        : (0.000000e+00 0.000000e+00 0.000000e+00)
#
# Time        	Cd            	Cs            	Cl            	CmRoll        	CmPitch       	CmYaw         	Cd(f)         	Cd(r)         	Cs(f)         	Cs(r)         	Cl(f)         	Cl(r)         
1             	1.021062e-02	-1.493706e-19	-2.006116e-03	5.015291e-05	2.531845e-02	2.552654e-04	5.155461e-03	5.055155e-03	2.552654e-04	-2.552654e-04	2.431540e-02	-2.632151e-02
2             	2.339472e-02	-5.747656e-20	-5.054694e-03	1.263673e-04	5.840448e-02	5.848680e-04	1.182373e-02	1.157099e-02	5.848680e-04	-5.848680e-04	5.587713e-02	-6.093182e-02
3             	2.048139e-02	3.633860e-20	-2.210735e-03	5.526837e-05	4.646205e-02	5.120347e-04	1.029596e-02	1.018543e-02	5.120347e-04	-5.120347e-04	4.535669e-02	-4.756742e-02
4             	1.608213e-02	4.988188e-20	-2.909770e-04	7.274425e-06	3.320031e-02	4.020533e-04	8.048341e-03	8.033792e-03	4.020533e-04	-4.020533e-04	3.305482e-02	-3.334580e-02
5             	1.476677e-02	3.497290e-20	-1.416358e-04	3.540894e-06	3.025022e-02	3.691692e-04	7.386925e-03	7.379844e-03	3.691692e-04	-3.691692e-04	3.017940e-02	-3.032103e-02
6             	1.490380e-02	2.145474e-20	-1.760725e-04	4.401813e-06	3.080342e-02	3.725951e-04	7.456303e-03	7.447499e-03	3.725951e-04	-3.725951e-04	3.071538e-02	-3.089145e-02
7             	1.498371e-02	1.559917e-20	2.948520e-04	-7.371300e-06	3.026013e-02	3.745927e-04	7.484482e-03	7.499225e-03	3.745927e-04	-3.745927e-04	3.040756e-02	-3.011271e-02
8             	1.505871e-02	1.077501e-20	1.363352e-03	-3.408381e-05	2.848938e-02	3.764677e-04	7.495270e-03	7.563438e-03	3.764677e-04	-3.764677e-04	2.917106e-02	-2.780770e-02
9             	1.456782e-02	1.264422e-20	2.520711e-03	-6.301776e-05	2.536814e-02	3.641955e-04	7.220893e-03	7.346929e-03	3.641955e-04	-3.641955e-04	2.662849e-02	-2.410778e-02
10            	1.396078e-02	1.284878e-20	3.763548e-03	-9.408869e-05	2.178604e-02	3.490195e-04	6.886301e-03	7.074478e-03	3.490195e-04	-3.490195e-04	2.366782e-02	-1.990427e-02
11            	1.338687e-02	1.771219e-20	4.855587e-03	-1.213897e-04	1.854354e-02	3.346718e-04	6.572047e-03	6.814826e-03	3.346718e-04	-3.346718e-04	2.097133e-02	-1.611575e-02
12            	1.281192e-02	1.560570e-20	5.649705e-03	-1.412426e-04	1.588355e-02	3.202979e-04	6.264716e-03	6.547201e-03	3.202979e-04	-3.202979e-04	1.870840e-02	-1.305870e-02
13            	1.229723e-02	1.523495e-20	6.248582e-03	-1.562146e-04	1.369894e-02	3.074306e-04	5.992398e-03	6.304827e-03	3.074306e-04	-3.074306e-04	1.682323e-02	-1.057465e-02
14            	1.187438e-02	1.440757e-20	6.732374e-03	-1.683094e-04	1.191533e-02	2.968596e-04	5.768883e-03	6.105502e-03	2.968596e-04	-2.968596e-04	1.528151e-02	-8.549138e-03
15            	1.150658e-02	1.343243e-20	7.153881e-03	-1.788470e-04	1.035400e-02	2.876645e-04	5.574443e-03	5.932138e-03	2.876645e-04	-2.876645e-04	1.393094e-02	-6.777057e-03
16            	1.121774e-02	1.233294e-20	7.482449e-03	-1.870612e-04	9.130823e-03	2.804435e-04	5.421809e-03	5.795932e-03	2.804435e-04	-2.804435e-04	1.287205e-02	-5.389599e-03
17            	1.101163e-02	1.157151e-20	7.691222e-03	-1.922805e-04	8.301889e-03	2.752908e-04	5.313535e-03	5.698096e-03	2.752908e-04	-2.752908e-04	1.214750e-02	-4.456278e-03
18            	1.085904e-02	1.083237e-20	7.770357e-03	-1.942589e-04	7.822327e-03	2.714761e-04	5.235262e-03	5.623780e-03	2.714761e-04	-2.714761e-04	1.170751e-02	-3.937148e-03
19            	1.080236e-02	1.023518e-20	7.730201e-03	-1.932550e-04	7.776074e-03	2.700590e-04	5.207926e-03	5.594436e-03	2.700590e-04	-2.700590e-04	1.164117e-02	-3.910973e-03
20            	1.076527e-02	9.726277e-21	7.610353e-03	-1.902588e-04	7.914107e-03	2.691317e-04	5.192376e-03	5.572893e-03	2.691317e-04	-2.691317e-04	1.171928e-02	-4.108930e-03
21            	1.074264e-02	9.363102e-21	7.417039e-03	-1.854260e-04	8.217839e-03	2.685660e-04	5.185894e-03	5.556746e-03	2.685660e-04	-2.685660e-04	1.192636e-02	-4.509319e-03
22            	1.074088e-02	9.133841e-21	7.162891e-03	-1.790723e-04	8.677910e-03	2.685220e-04	5.191367e-03	5.549512e-03	2.685220e-04	-2.685220e-04	1.225936e-02	-5.096464e-03
23            	1.074847e-02	9.033562e-21	6.864066e-03	-1.716017e-04	9.236368e-03	2.687117e-04	5.202633e-03	5.545837e-03	2.687117e-04	-2.687117e-04	1.266840e-02	-5.804335e-03
24            	1.078535e-02	9.250065e-21	6.548269e-03	-1.637067e-04	9.891308e-03	2.696336e-04	5.228966e-03	5.556379e-03	2.696336e-04	-2.696336e-04	1.316544e-02	-6.617173e-03
25            	1.078766e-02	9.038271e-21	6.176270e-03	-1.544067e-04	1.057163e-02	2.696916e-04	5.239424e-03	5.548238e-03	2.696916e-04	-2.696916e-04	1.365976e-02	-7.483490e-03
26            	1.086696e-02	9.276161e-21	5.772474e-03	-1.443119e-04	1.148499e-02	2.716739e-04	5.289167e-03	5.577790e-03	2.716739e-04	-2.716739e-04	1.437123e-02	-8.598753e-03
27            	1.094082e-02	9.295364e-21	5.376462e-03	-1.344116e-04	1.237908e-02	2.735206e-04	5.335999e-03	5.604823e-03	2.735206e-04	-2.735206e-04	1.506731e-02	-9.690847e-03
28            	1.105523e-02	9.427101e-21	5.001364e-03	-1.250341e-04	1.333046e-02	2.763809e-04	5.402583e-03	5.652652e-03	2.763809e-04	-2.763809e-04	1.583115e-02	-1.082978e-02
29            	1.119975e-02	9.217550e-21	4.694273e-03	-1.173568e-04	1.422969e-02	2.799939e-04	5.482520e-03	5.717234e-03	2.799939e-04	-2.799939e-04	1.657682e-02	-1.188255e-02
30            	1.136976e-02	9.316908e-21	4.488760e-03	-1.122190e-04	1.500520e-02	2.842440e-04	5.572662e-03	5.797100e-03	2.842440e-04	-2.842440e-04	1.724958e-02	-1.276082e-02
31            	1.155155e-02	9.535429e-21	4.417634e-03	-1.104409e-04	1.556426e-02	2.887887e-04	5.665333e-03	5.886215e-03	2.887887e-04	-2.887887e-04	1.777308e-02	-1.335545e-02
32            	1.172836e-02	9.881348e-21	4.491231e-03	-1.122808e-04	1.584743e-02	2.932089e-04	5.751897e-03	5.976458e-03	2.932089e-04	-2.932089e-04	1.809304e-02	-1.360181e-02
33            	1.188440e-02	1.055888e-20	4.718770e-03	-1.179692e-04	1.579376e-02	2.971099e-04	5.824229e-03	6.060168e-03	2.971099e-04	-2.971099e-04	1.815315e-02	-1.343438e-02
34            	1.200900e-02	1.115688e-20	5.075608e-03	-1.268902e-04	1.541577e-02	3.002250e-04	5.877610e-03	6.131390e-03	3.002250e-04	-3.002250e-04	1.795357e-02	-1.287796e-02
35            	1.206663e-02	1.176034e-20	5.518680e-03	-1.379670e-04	1.471003e-02	3.016659e-04	5.895350e-03	6.171284e-03	3.016659e-04	-3.016659e-04	1.746937e-02	-1.195069e-02
36            	1.204117e-02	1.218277e-20	6.000263e-03	-1.500066e-04	1.373329e-02	3.010292e-04	5.870578e-03	6.170591e-03	3.010292e-04	-3.010292e-04	1.673342e-02	-1.073316e-02
37            	1.192326e-02	1.196249e-20	6.454476e-03	-1.613619e-04	1.259576e-02	2.980814e-04	5.800267e-03	6.122990e-03	2.980814e-04	-2.980814e-04	1.582300e-02	-9.368520e-03
38            	1.181761e-02	1.165045e-20	6.737168e-03	-1.684292e-04	1.180873e-02	2.954403e-04	5.740377e-03	6.077236e-03	2.954403e-04	-2.954403e-04	1.517731e-02	-8.440143e-03
39            	1.170887e-02	1.163956e-20	6.889713e-03	-1.722428e-04	1.126907e-02	2.927218e-04	5.682192e-03	6.026678e-03	2.927218e-04	-2.927218e-04	1.471393e-02	-7.824216e-03
40            	1.151542e-02	1.084091e-20	6.940094e-03	-1.735023e-04	1.074618e-02	2.878856e-04	5.584209e-03	5.931213e-03	2.878856e-04	-2.878856e-04	1.421623e-02	-7.276135e-03
41            	1.137919e-02	9.370108e-21	6.852109e-03	-1.713027e-04	1.060618e-02	2.844798e-04	5.518293e-03	5.860899e-03	2.844798e-04	-2.844798e-04	1.403223e-02	-7.180121e-03
42            	1.127344e-02	8.378680e-21	6.664897e-03	-1.666224e-04	1.069569e-02	2.818361e-04	5.470099e-03	5.803344e-03	2.818361e-04	-2.818361e-04	1.402813e-02	-7.363237e-03
43            	1.119430e-02	7.298273e-21	6.321374e-03	-1.580344e-04	1.112663e-02	2.798575e-04	5.439115e-03	5.755184e-03	2.798575e-04	-2.798575e-04	1.428731e-02	-7.965938e-03
44            	1.126736e-02	8.334301e-21	5.827195e-03	-1.456799e-04	1.215631e-02	2.816839e-04	5.487999e-03	5.779358e-03	2.816839e-04	-2.816839e-04	1.506990e-02	-9.242710e-03
45            	1.149173e-02	9.660051e-21	5.136672e-03	-1.284168e-04	1.389614e-02	2.872933e-04	5.617449e-03	5.874283e-03	2.872933e-04	-2.872933e-04	1.646447e-02	-1.132780e-02
46            	1.184423e-02	1.167367e-20	4.377610e-03	-1.094403e-04	1.607606e-02	2.961057e-04	5.812674e-03	6.031554e-03	2.961057e-04	-2.961057e-04	1.826486e-02	-1.388725e-02
47            	1.228873e-02	1.312672e-20	3.671350e-03	-9.178376e-05	1.839472e-02	3.072183e-04	6.052583e-03	6.236150e-03	3.072183e-04	-3.072183e-04	2.023040e-02	-1.655905e-02
48            	1.277488e-02	1.477493e-20	3.155498e-03	-7.888744e-05	2.049038e-02	3.193721e-04	6.308554e-03	6.466329e-03	3.193721e-04	-3.193721e-04	2.206813e-02	-1.891263e-02
49            	1.325995e-02	1.648313e-20	2.959626e-03	-7.399065e-05	2.202414e-02	3.314987e-04	6.555983e-03	6.703964e-03	3.314987e-04	-3.314987e-04	2.350395e-02	-2.054433e-02
50            	1.363305e-02	1.767685e-20	3.224826e-03	-8.062066e-05	2.245206e-02	3.408264e-04	6.735907e-03	6.897148e-03	3.408264e-04	-3.408264e-04	2.406447e-02	-2.083964e-02
51            	1.376492e-02	1.808137e-20	3.968739e-03	-9.921848e-05	2.140952e-02	3.441230e-04	6.783242e-03	6.981679e-03	3.441230e-04	-3.441230e-04	2.339389e-02	-1.942515e-02
52            	1.362857e-02	1.828673e-20	4.948311e-03	-1.237078e-04	1.926059e-02	3.407143e-04	6.690579e-03	6.937994e-03	3.407143e-04	-3.407143e-04	2.173474e-02	-1.678643e-02
53            	1.330975e-02	1.735874e-20	5.875467e-03	-1.468867e-04	1.675852e-02	3.327437e-04	6.507988e-03	6.801761e-03	3.327437e-04	-3.327437e-04	1.969625e-02	-1.382079e-02
54            	1.292560e-02	1.569846e-20	6.514361e-03	-1.628590e-04	1.467386e-02	3.231400e-04	6.299940e-03	6.625658e-03	3.231400e-04	-3.231400e-04	1.793104e-02	-1.141668e-02
55            	1.257752e-02	1.471559e-20	6.816755e-03	-1.704189e-04	1.332524e-02	3.144379e-04	6.118340e-03	6.459178e-03	3.144379e-04	-3.144379e-04	1.673361e-02	-9.916860e-03
56            	1.229957e-02	1.421756e-20	6.790909e-03	-1.697727e-04	1.274992e-02	3.074894e-04	5.980015e-03	6.319560e-03	3.074894e-04	-3.074894e-04	1.614538e-02	-9.354468e-03
57            	1.202487e-02	1.352178e-20	6.500947e-03	-1.625237e-04	1.265863e-02	3.006219e-04	5.849914e-03	6.174961e-03	3.006219e-04	-3.006219e-04	1.590910e-02	-9.408157e-03
58            	1.188852e-02	1.347734e-20	6.005079e-03	-1.501270e-04	1.324270e-02	2.972130e-04	5.794133e-03	6.094387e-03	2.972130e-04	-2.972130e-04	1.624524e-02	-1.024016e-02
59            	1.185220e-02	1.360756e-20	5.342130e-03	-1.335532e-04	1.433336e-02	2.963051e-04	5.792549e-03	6.059655e-03	2.963051e-04	-2.963051e-04	1.700442e-02	-1.166229e-02
60            	1.200592e-02	1.431557e-20	4.517214e-03	-1.129303e-04	1.615625e-02	3.001481e-04	5.890031e-03	6.115892e-03	3.001481e-04	-3.001481e-04	1.841486e-02	-1.389764e-02
61            	1.234005e-02	1.455135e-20	3.641610e-03	-9.104024e-05	1.850531e-02	3.085012e-04	6.078984e-03	6.261064e-03	3.085012e-04	-3.085012e-04	2.032611e-02	-1.668450e-02
62            	1.279334e-02	1.495718e-20	2.869547e-03	-7.173868e-05	2.097141e-02	3.198336e-04	6.324934e-03	6.468411e-03	3.198336e-04	-3.198336e-04	2.240619e-02	-1.953664e-02
63            	1.334273e-02	1.604178e-20	2.334463e-03	-5.836157e-05	2.326486e-02	3.335683e-04	6.613004e-03	6.729727e-03	3.335683e-04	-3.335683e-04	2.443209e-02	-2.209763e-02
64            	1.387050e-02	1.774259e-20	2.206858e-03	-5.517144e-05	2.478919e-02	3.467625e-04	6.880078e-03	6.990421e-03	3.467625e-04	-3.467625e-04	2.589262e-02	-2.368576e-02
65            	1.429844e-02	1.902494e-20	2.586422e-03	-6.466055e-05	2.514572e-02	3.574609e-04	7.084558e-03	7.213879e-03	3.574609e-04	-3.574609e-04	2.643893e-02	-2.385251e-02
66            	1.443490e-02	2.044999e-20	3.482504e-03	-8.706260e-05	2.383608e-02	3.608724e-04	7.130385e-03	7.304510e-03	3.608724e-04	-3.608724e-04	2.557733e-02	-2.209483e-02
67            	1.426873e-02	2.166946e-20	4.589253e-03	-1.147313e-04	2.137956e-02	3.567183e-04	7.019634e-03	7.249097e-03	3.567183e-04	-3.567183e-04	2.367418e-02	-1.908493e-02
68            	1.391475e-02	2.046223e-20	5.611827e-03	-1.402957e-04	1.861108e-02	3.478687e-04	6.817078e-03	7.097670e-03	3.478687e-04	-3.478687e-04	2.141700e-02	-1.580517e-02
69            	1.352571e-02	1.851641e-20	6.310406e-03	-1.577602e-04	1.639762e-02	3.381428e-04	6.605096e-03	6.920616e-03	3.381428e-04	-3.381428e-04	1.955283e-02	-1.324242e-02
70            	1.311891e-02	1.726388e-20	6.680369e-03	-1.670092e-04	1.478696e-02	3.279727e-04	6.392445e-03	6.726463e-03	3.279727e-04	-3.279727e-04	1.812714e-02	-1.144678e-02
71            	1.274977e-02	1.627363e-20	6.716700e-03	-1.679175e-04	1.389285e-02	3.187442e-04	6.206967e-03	6.542802e-03	3.187442e-04	-3.187442e-04	1.725120e-02	-1.053450e-02
72            	1.239761e-02	1.461104e-20	6.433498e-03	-1.608374e-04	1.360958e-02	3.099401e-04	6.037965e-03	6.359640e-03	3.099401e-04	-3.099401e-04	1.682633e-02	-1.039283e-02
73            	1.217790e-02	1.431057e-20	5.948030e-03	-1.487008e-04	1.398037e-02	3.044475e-04	5.940249e-03	6.237651e-03	3.044475e-04	-3.044475e-04	1.695438e-02	-1.100635e-02
74            	1.208544e-02	1.364698e-20	5.281825e-03	-1.320456e-04	1.493198e-02	3.021361e-04	5.910677e-03	6.174768e-03	3.021361e-04	-3.021361e-04	1.757289e-02	-1.229106e-02
75            	1.217561e-02	1.367662e-20	4.394864e-03	-1.098716e-04	1.670435e-02	3.043903e-04	5.977935e-03	6.197678e-03	3.043903e-04	-3.043903e-04	1.890178e-02	-1.450692e-02
76            	1.251369e-02	1.427351e-20	3.367868e-03	-8.419671e-05	1.932160e-02	3.128422e-04	6.172646e-03	6.341040e-03	3.128422e-04	-3.128422e-04	2.100553e-02	-1.763766e-02
77            	1.304010e-02	1.533305e-20	2.405564e-03	-6.013909e-05	2.228799e-02	3.260025e-04	6.459910e-03	6.580188e-03	3.260025e-04	-3.260025e-04	2.349078e-02	-2.108521e-02
78            	1.365983e-02	1.674941e-20	1.684691e-03	-4.211727e-05	2.508968e-02	3.414958e-04	6.787800e-03	6.872034e-03	3.414958e-04	-3.414958e-04	2.593203e-02	-2.424734e-02
79            	1.428120e-02	1.881710e-20	1.359657e-03	-3.399142e-05	2.721596e-02	3.570300e-04	7.106610e-03	7.174592e-03	3.570300e-04	-3.570300e-04	2.789578e-02	-2.653613e-02
80            	1.484499e-02	2.036702e-20	1.577386e-03	-3.943466e-05	2.820533e-02	3.711247e-04	7.383058e-03	7.461928e-03	3.711247e-04	-3.711247e-04	2.899403e-02	-2.741664e-02
81            	1.510577e-02	2.170064e-20	2.405386e-03	-6.013464e-05	2.735209e-02	3.776443e-04	7.492750e-03	7.613020e-03	3.776443e-04	-3.776443e-04	2.855479e-02	-2.614940e-02
82            	1.499144e-02	2.240509e-20	3.616240e-03	-9.040599e-05	2.485811e-02	3.747859e-04	7.405313e-03	7.586125e-03	3.747859e-04	-3.747859e-04	2.666623e-02	-2.304999e-02
83            	1.466682e-02	2.263737e-20	4.858237e-03	-1.214559e-04	2.175056e-02	3.666706e-04	7.211956e-03	7.454868e-03	3.666706e-04	-3.666706e-04	2.417968e-02	-1.932145e-02
84            	1.420003e-02	2.045390e-20	5.844913e-03	-1.461228e-04	1.880256e-02	3.550007e-04	6.953890e-03	7.246136e-03	3.550007e-04	-3.550007e-04	2.172501e-02	-1.588010e-02
85            	1.377032e-02	1.889533e-20	6.432632e-03	-1.608158e-04	1.671269e-02	3.442580e-04	6.724344e-03	7.045975e-03	3.442580e-04	-3.442580e-04	1.992900e-02	-1.349637e-02
86            	1.333339e-02	1.768747e-20	6.673055e-03	-1.668264e-04	1.528252e-02	3.333347e-04	6.499868e-03	6.833520e-03	3.333347e-04	-3.333347e-04	1.861905e-02	-1.194599e-02
87            	1.289143e-02	1.638329e-20	6.553956e-03	-1.638489e-04	1.449593e-02	3.222857e-04	6.281864e-03	6.609562e-03	3.222857e-04	-3.222857e-04	1.777291e-02	-1.121895e-02
88            	1.254667e-02	1.533004e-20	6.127450e-03	-1.531863e-04	1.447570e-02	3.136668e-04	6.120149e-03	6.426521e-03	3.136668e-04	-3.136668e-04	1.753943e-02	-1.141197e-02
89            	1.238051e-02	1.449366e-20	5.484200e-03	-1.371050e-04	1.522210e-02	3.095128e-04	6.053152e-03	6.327362e-03	3.095128e-04	-3.095128e-04	1.796420e-02	-1.248000e-02
90            	1.233043e-02	1.398314e-20	4.645319e-03	-1.161330e-04	1.657401e-02	3.082609e-04	6.049084e-03	6.281350e-03	3.082609e-04	-3.082609e-04	1.889667e-02	-1.425135e-02
91            	1.254374e-02	1.448813e-20	3.605264e-03	-9.013160e-05	1.890418e-02	3.135935e-04	6.181738e-03	6.362001e-03	3.135935e-04	-3.135935e-04	2.070681e-02	-1.710155e-02
92            	1.298498e-02	1.514849e-20	2.498631e-03	-6.246577e-05	2.191890e-02	3.246246e-04	6.430026e-03	6.554958e-03	3.246246e-04	-3.246246e-04	2.316822e-02	-2.066959e-02
93            	1.359395e-02	1.635072e-20	1.536890e-03	-3.842225e-05	2.510404e-02	3.398489e-04	6.758555e-03	6.835400e-03	3.398489e-04	-3.398489e-04	2.587249e-02	-2.433560e-02
94            	1.428148e-02	1.823890e-20	9.088433e-04	-2.272108e-05	2.792592e-02	3.570371e-04	7.118021e-03	7.163463e-03	3.570371e-04	-3.570371e-04	2.838034e-02	-2.747149e-02
95            	1.493718e-02	2.027477e-20	7.862545e-04	-1.965636e-05	2.977790e-02	3.734295e-04	7.448934e-03	7.488247e-03	3.734295e-04	-3.734295e-04	3.017103e-02	-2.938477e-02
96            	1.540833e-02	2.115802e-20	1.279897e-03	-3.199742e-05	3.006158e-02	3.852082e-04	7.672167e-03	7.736162e-03	3.852082e-04	-3.852082e-04	3.070153e-02	-2.942163e-02
97            	1.551529e-02	2.254840e-20	2.343095e-03	-5.857738e-05	2.840844e-02	3.878822e-04	7.699066e-03	7.816220e-03	3.878822e-04	-3.878822e-04	2.957998e-02	-2.723689e-02
98            	1.531342e-02	2.328546e-20	3.677691e-03	-9.194227e-05	2.546642e-02	3.828355e-04	7.564767e-03	7.748652e-03	3.828355e-04	-3.828355e-04	2.730527e-02	-2.362758e-02
99            	1.490981e-02	2.290059e-20	4.976045e-03	-1.244011e-04	2.206395e-02	3.727453e-04	7.330505e-03	7.579308e-03	3.727453e-04	-3.727453e-04	2.455197e-02	-1.957593e-02
100           	1.439285e-02	2.050393e-20	5.939262e-03	-1.484815e-04	1.905287e-02	3.598213e-04	7.047945e-03	7.344908e-03	3.598213e-04	-3.598213e-04	2.202250e-02	-1.608324e-02
101           	1.393017e-02	1.900751e-20	6.485351e-03	-1.621338e-04	1.697324e-02	3.482542e-04	6.802950e-03	7.127218e-03	3.482542e-04	-3.482542e-04	2.021591e-02	-1.373056e-02
102           	1.348140e-02	1.786613e-20	6.671151e-03	-1.667788e-04	1.561720e-02	3.370351e-04	6.573923e-03	6.907480e-03	3.370351e-04	-3.370351e-04	1.895277e-02	-1.228162e-02
103           	1.302306e-02	1.648236e-20	6.490706e-03	-1.622676e-04	1.489922e-02	3.255765e-04	6.349262e-03	6.673798e-03	3.255765e-04	-3.255765e-04	1.814457e-02	-1.165387e-02
104           	1.269861e-02	1.583785e-20	6.043157e-03	-1.510789e-04	1.495798e-02	3.174653e-04	6.198227e-03	6.500385e-03	3.174653e-04	-3.174653e-04	1.797956e-02	-1.193640e-02
105           	1.243893e-02	1.482858e-20	5.392212e-03	-1.348053e-04	1.549503e-02	3.109734e-04	6.084662e-03	6.354273e-03	3.109734e-04	-3.109734e-04	1.819113e-02	-1.279892e-02
106           	1.240938e-02	1.398838e-20	4.464280e-03	-1.116070e-04	1.704490e-02	3.102345e-04	6.093084e-03	6.316298e-03	3.102345e-04	-3.102345e-04	1.927704e-02	-1.481276e-02
107           	1.268073e-02	1.465903e-20	3.330968e-03	-8.327419e-05	1.967574e-02	3.170182e-04	6.257090e-03	6.423638e-03	3.170182e-04	-3.170182e-04	2.134122e-02	-1.801026e-02
108           	1.318442e-02	1.548936e-20	2.163387e-03	-5.408468e-05	2.294708e-02	3.296106e-04	6.538128e-03	6.646297e-03	3.296106e-04	-3.296106e-04	2.402877e-02	-2.186538e-02
109           	1.385277e-02	1.674274e-20	1.157250e-03	-2.893124e-05	2.636476e-02	3.463192e-04	6.897454e-03	6.955316e-03	3.463192e-04	-3.463192e-04	2.694338e-02	-2.578613e-02
110           	1.458715e-02	1.885242e-20	5.633176e-04	-1.408294e-05	2.923726e-02	3.646787e-04	7.279491e-03	7.307657e-03	3.646787e-04	-3.646787e-04	2.951892e-02	-2.895560e-02
111           	1.523417e-02	2.085124e-20	5.079384e-04	-1.269846e-05	3.096112e-02	3.808542e-04	7.604386e-03	7.629783e-03	3.808542e-04	-3.808542e-04	3.121509e-02	-3.070715e-02
112           	1.569085e-02	2.172345e-20	1.095294e-03	-2.738235e-05	3.104516e-02	3.922712e-04	7.818042e-03	7.872807e-03	3.922712e-04	-3.922712e-04	3.159281e-02	-3.049752e-02
113           	1.574336e-02	2.335122e-20	2.271360e-03	-5.678400e-05	2.905575e-02	3.935839e-04	7.814894e-03	7.928462e-03	3.935839e-04	-3.935839e-04	3.019143e-02	-2.792007e-02
114           	1.547859e-02	2.383946e-20	3.664804e-03	-9.162009e-05	2.585942e-02	3.869648e-04	7.647676e-03	7.830916e-03	3.869648e-04	-3.869648e-04	2.769182e-02	-2.402702e-02
115           	1.503116e-02	2.303145e-20	4.988998e-03	-1.247250e-04	2.231004e-02	3.757789e-04	7.390854e-03	7.640304e-03	3.757789e-04	-3.757789e-04	2.480454e-02	-1.981554e-02
116           	1.450653e-02	2.059876e-20	5.947567e-03	-1.486892e-04	1.929646e-02	3.626633e-04	7.104577e-03	7.401956e-03	3.626633e-04	-3.626633e-04	2.227024e-02	-1.632267e-02
117           	1.402444e-02	1.915556e-20	6.495963e-03	-1.623991e-04	1.716875e-02	3.506111e-04	6.849822e-03	7.174620e-03	3.506111e-04	-3.506111e-04	2.041673e-02	-1.392077e-02
118           	1.357488e-02	1.806695e-20	6.673025e-03	-1.668256e-04	1.582613e-02	3.393719e-04	6.620613e-03	6.954264e-03	3.393719e-04	-3.393719e-04	1.916264e-02	-1.248962e-02
119           	1.310526e-02	1.671926e-20	6.487373e-03	-1.621843e-04	1.508402e-02	3.276315e-04	6.390446e-03	6.714814e-03	3.276315e-04	-3.276315e-04	1.832771e-02	-1.184033e-02
120           	1.274717e-02	1.578537e-20	5.981705e-03	-1.495426e-04	1.516090e-02	3.186793e-04	6.224043e-03	6.523128e-03	3.186793e-04	-3.186793e-04	1.815175e-02	-1.217005e-02
121           	1.255385e-02	1.538591e-20	5.256527e-03	-1.314132e-04	1.598283e-02	3.138462e-04	6.145511e-03	6.408337e-03	3.138462e-04	-3.138462e-04	1.861110e-02	-1.335457e-02
122           	1.253318e-02	1.448456e-20	4.308643e-03	-1.077161e-04	1.759084e-02	3.133295e-04	6.158874e-03	6.374306e-03	3.133295e-04	-3.133295e-04	1.974516e-02	-1.543652e-02
123           	1.279169e-02	1.499199e-20	3.171799e-03	-7.929497e-05	2.020022e-02	3.197921e-04	6.316548e-03	6.475138e-03	3.197921e-04	-3.197921e-04	2.178612e-02	-1.861432e-02
124           	1.329252e-02	1.592835e-20	2.038103e-03	-5.095257e-05	2.340086e-02	3.323131e-04	6.595309e-03	6.697214e-03	3.323131e-04	-3.323131e-04	2.441991e-02	-2.238181e-02
125           	1.391117e-02	1.679357e-20	1.081980e-03	-2.704949e-05	2.661716e-02	3.477793e-04	6.928536e-03	6.982635e-03	3.477793e-04	-3.477793e-04	2.715814e-02	-2.607617e-02
126           	1.460586e-02	1.873699e-20	4.757310e-04	-1.189327e-05	2.942425e-02	3.651465e-04	7.291036e-03	7.314823e-03	3.651465e-04	-3.651465e-04	2.966211e-02	-2.918638e-02
127           	1.528741e-02	2.099211e-20	3.766873e-04	-9.417182e-06	3.130202e-02	3.821853e-04	7.634288e-03	7.653122e-03	3.821853e-04	-3.821853e-04	3.149037e-02	-3.111368e-02
128           	1.578009e-02	2.196210e-20	9.175529e-04	-2.293882e-05	3.155894e-02	3.945022e-04	7.867105e-03	7.912982e-03	3.945022e-04	-3.945022e-04	3.201772e-02	-3.110016e-02
129           	1.587554e-02	2.355698e-20	2.056377e-03	-5.140943e-05	2.974726e-02	3.968885e-04	7.886360e-03	7.989179e-03	3.968885e-04	-3.968885e-04	3.077545e-02	-2.871907e-02
130           	1.563883e-02	2.423386e-20	3.465622e-03	-8.664055e-05	2.659413e-02	3.909706e-04	7.732772e-03	7.906053e-03	3.909706e-04	-3.909706e-04	2.832694e-02	-2.486132e-02
131           	1.518522e-02	2.353083e-20	4.830363e-03	-1.207591e-04	2.295736e-02	3.796306e-04	7.471852e-03	7.713370e-03	3.796306e-04	-3.796306e-04	2.537254e-02	-2.054218e-02
132           	1.464961e-02	2.103236e-20	5.848219e-03	-1.462055e-04	1.980201e-02	3.662403e-04	7.178601e-03	7.471012e-03	3.662403e-04	-3.662403e-04	2.272612e-02	-1.687790e-02
133           	1.415753e-02	1.946158e-20	6.445928e-03	-1.611482e-04	1.755597e-02	3.539383e-04	6.917617e-03	7.239914e-03	3.539383e-04	-3.539383e-04	2.077893e-02	-1.433300e-02
134           	1.369142e-02	1.832110e-20	6.660720e-03	-1.665180e-04	1.610598e-02	3.422856e-04	6.679194e-03	7.012230e-03	3.422856e-04	-3.422856e-04	1.943634e-02	-1.277562e-02
135           	1.321424e-02	1.700350e-20	6.497182e-03	-1.624295e-04	1.530806e-02	3.303559e-04	6.444689e-03	6.769548e-03	3.303559e-04	-3.303559e-04	1.855665e-02	-1.205947e-02
136           	1.289341e-02	1.640004e-20	6.050319e-03	-1.512580e-04	1.536653e-02	3.223353e-04	6.295447e-03	6.597963e-03	3.223353e-04	-3.223353e-04	1.839168e-02	-1.234137e-02
137           	1.260376e-02	1.537566e-20	5.399021e-03	-1.349755e-04	1.583204e-02	3.150941e-04	6.166907e-03	6.436858e-03	3.150941e-04	-3.150941e-04	1.853155e-02	-1.313253e-02
138           	1.252782e-02	1.444911e-20	4.463351e-03	-1.115838e-04	1.729008e-02	3.131956e-04	6.152329e-03	6.375496e-03	3.131956e-04	-3.131956e-04	1.952176e-02	-1.505841e-02
139           	1.276007e-02	1.490102e-20	3.304730e-03	-8.261825e-05	1.987686e-02	3.190018e-04	6.297418e-03	6.462655e-03	3.190018e-04	-3.190018e-04	2.152923e-02	-1.822450e-02
140           	1.324671e-02	1.567807e-20	2.096548e-03	-5.241369e-05	2.318047e-02	3.311677e-04	6.570941e-03	6.675769e-03	3.311677e-04	-3.311677e-04	2.422875e-02	-2.213220e-02
141           	1.389475e-02	1.683976e-20	1.060706e-03	-2.651765e-05	2.659669e-02	3.473689e-04	6.920860e-03	6.973895e-03	3.473689e-04	-3.473689e-04	2.712704e-02	-2.606633e-02
142           	1.461777e-02	1.886867e-20	3.959277e-04	-9.898192e-06	2.957494e-02	3.654442e-04	7.298986e-03	7.318782e-03	3.654442e-04	-3.654442e-04	2.977290e-02	-2.937697e-02
143           	1.530975e-02	2.102608e-20	2.520773e-04	-6.301933e-06	3.156243e-02	3.827438e-04	7.648574e-03	7.661178e-03	3.827438e-04	-3.827438e-04	3.168847e-02	-3.143640e-02
144           	1.580740e-02	2.196767e-20	7.437603e-04	-1.859401e-05	3.192823e-02	3.951851e-04	7.885107e-03	7.922295e-03	3.951851e-04	-3.951851e-04	3.230011e-02	-3.155635e-02
145           	1.593199e-02	2.329331e-20	1.837697e-03	-4.594242e-05	3.027658e-02	3.982997e-04	7.920051e-03	8.011936e-03	3.982997e-04	-3.982997e-04	3.119542e-02	-2.935773e-02
146           	1.572821e-02	2.428468e-20	3.254743e-03	-8.136858e-05	2.719501e-02	3.932053e-04	7.782738e-03	7.945475e-03	3.932053e-04	-3.932053e-04	2.882239e-02	-2.556764e-02
147           	1.528984e-02	2.373571e-20	4.644925e-03	-1.161231e-04	2.354830e-02	3.822459e-04	7.528795e-03	7.761042e-03	3.822459e-04	-3.822459e-04	2.587076e-02	-2.122584e-02
148           	1.474744e-02	2.129381e-20	5.728105e-03	-1.432026e-04	2.025234e-02	3.686860e-04	7.230517e-03	7.516922e-03	3.686860e-04	-3.686860e-04	2.311639e-02	-1.738829e-02
149           	1.427635e-02	1.976128e-20	6.362056e-03	-1.590514e-04	1.798034e-02	3.569088e-04	6.979124e-03	7.297227e-03	3.569088e-04	-3.569088e-04	2.116137e-02	-1.479931e-02
150           	1.379301e-02	1.856443e-20	6.624401e-03	-1.656100e-04	1.640146e-02	3.448252e-04	6.730893e-03	7.062113e-03	3.448252e-04	-3.448252e-04	1.971366e-02	-1.308926e-02
151           	1.335149e-02	1.750166e-20	6.520364e-03	-1.630091e-04	1.557751e-02	3.337871e-04	6.512734e-03	6.838752e-03	3.337871e-04	-3.337871e-04	1.883769e-02	-1.231733e-02
152           	1.290316e-02	1.609859e-20	6.121024e-03	-1.530256e-04	1.526558e-02	3.225790e-04	6.298555e-03	6.604606e-03	3.225790e-04	-3.225790e-04	1.832609e-02	-1.220506e-02
153           	1.264519e-02	1.562264e-20	5.457432e-03	-1.364358e-04	1.583241e-02	3.161297e-04	6.186159e-03	6.459030e-03	3.161297e-04	-3.161297e-04	1.856113e-02	-1.310370e-02
154           	1.257015e-02	1.477647e-20	4.591954e-03	-1.147988e-04	1.715787e-02	3.142538e-04	6.170278e-03	6.399875e-03	3.142538e-04	-3.142538e-04	1.945385e-02	-1.486189e-02
155           	1.270760e-02	1.462225e-20	3.497725e-03	-8.744312e-05	1.940366e-02	3.176901e-04	6.266358e-03	6.441244e-03	3.176901e-04	-3.176901e-04	2.115252e-02	-1.765480e-02
156           	1.315456e-02	1.536419e-20	2.273436e-03	-5.683589e-05	2.263445e-02	3.288640e-04	6.520443e-03	6.634115e-03	3.288640e-04	-3.288640e-04	2.377117e-02	-2.149774e-02
157           	1.379673e-02	1.659545e-20	1.185902e-03	-2.964755e-05	2.612120e-02	3.449182e-04	6.868717e-03	6.928013e-03	3.449182e-04	-3.449182e-04	2.671415e-02	-2.552825e-02
158           	1.452907e-02	1.856197e-20	4.503542e-04	-1.125885e-05	2.924324e-02	3.632268e-04	7.253277e-03	7.275795e-03	3.632268e-04	-3.632268e-04	2.946842e-02	-2.901806e-02
159           	1.523551e-02	2.084968e-20	2.235818e-04	-5.589545e-06	3.141696e-02	3.808877e-04	7.612165e-03	7.623344e-03	3.808877e-04	-3.808877e-04	3.152875e-02	-3.130516e-02
160           	1.579798e-02	2.215068e-20	6.112528e-04	-1.528132e-05	3.212887e-02	3.949494e-04	7.883707e-03	7.914270e-03	3.949494e-04	-3.949494e-04	3.243449e-02	-3.182324e-02
161           	1.597194e-02	2.342867e-20	1.639291e-03	-4.098226e-05	3.072271e-02	3.992984e-04	7.944986e-03	8.026951e-03	3.992984e-04	-3.992984e-04	3.154235e-02	-2.990306e-02
162           	1.579514e-02	2.434494e-20	3.043254e-03	-7.608135e-05	2.774133e-02	3.948786e-04	7.821491e-03	7.973653e-03	3.948786e-04	-3.948786e-04	2.926296e-02	-2.621971e-02
163           	1.536993e-02	2.390807e-20	4.455599e-03	-1.113900e-04	2.409144e-02	3.842483e-04	7.573576e-03	7.796356e-03	3.842483e-04	-3.842483e-04	2.631924e-02	-2.186364e-02
164           	1.482552e-02	2.156352e-20	5.598405e-03	-1.399601e-04	2.067531e-02	3.706380e-04	7.272800e-03	7.552720e-03	3.706380e-04	-3.706380e-04	2.347451e-02	-1.787611e-02
165           	1.435027e-02	1.991448e-20	6.286167e-03	-1.571542e-04	1.828782e-02	3.587569e-04	7.017983e-03	7.332292e-03	3.587569e-04	-3.587569e-04	2.143090e-02	-1.514474e-02
166           	1.386265e-02	1.870101e-20	6.598373e-03	-1.649593e-04	1.660623e-02	3.465663e-04	6.766367e-03	7.096286e-03	3.465663e-04	-3.465663e-04	1.990542e-02	-1.330705e-02
167           	1.342587e-02	1.771097e-20	6.554102e-03	-1.638525e-04	1.569059e-02	3.356467e-04	6.549081e-03	6.876786e-03	3.356467e-04	-3.356467e-04	1.896764e-02	-1.241354e-02
168           	1.297736e-02	1.631272e-20	6.187012e-03	-1.546753e-04	1.531451e-02	3.244341e-04	6.334006e-03	6.643357e-03	3.244341e-04	-3.244341e-04	1.840802e-02	-1.222100e-02