# Force coefficients
# dragDir     : (1.000000e+00 0.000000e+00 0.000000e+00)
# sideDir     : (0.000000e+00 0.000000e+00 -1.000000e+00)
# liftDir     : (0.000000e+00 1.000000e+00 0.000000e+00)
# rollAxis    : (1.000000e+00 0.000000e+00 0.000000e+00)
# pitchAxis   : (0.000000e+00 0.000000e+00 -1.000000e+00)
# yawAxis     : (0.000000e+00 1.000000e+00 0.000000e+00)
# magUInf     : 4.000000e-02
# lRef        : 1.000000e-01
# Aref        : 1.000000e-01
# CofR        : (0.000000e+00 0.000000e+00 0.000000e+00)
#
# Time        	Cd            	Cs            	Cl            	CmRoll        	CmPitch       	CmYaw         	Cd(f)         	Cd(r)         	Cs(f)         	Cs(r)         	Cl(f)         	Cl(r)         
1             	1.068001e-03	-9.631121e-20	-1.139808e-03	2.849521e-05	4.305896e-03	2.670003e-05	5.624958e-04	5.055054e-04	2.670003e-05	-2.670003e-05	3.735992e-03	-4.875800e-03
2             	4.291501e-03	-1.002347e-19	-1.951415e-03	4.878538e-05	1.212180e-02	1.072875e-04	2.194536e-03	2.096965e-03	1.072875e-04	-1.072875e-04	1.114609e-02	-1.309750e-02
3             	4.333709e-03	-7.588501e-20	1.888264e-04	-4.720660e-06	8.156511e-03	1.083427e-04	2.162134e-03	2.171575e-03	1.083427e-04	-1.083427e-04	8.250924e-03	-8.062098e-03
4             	3.995849e-03	-2.564535e-20	8.852763e-04	-2.213191e-05	6.190543e-03	9.989622e-05	1.975792e-03	2.020056e-03	9.989622e-05	-9.989622e-05	6.633182e-03	-5.747905e-03
5             	3.891326e-03	1.298499e-20	4.342580e-04	-1.085645e-05	6.790160e-03	9.728316e-05	1.934807e-03	1.956520e-03	9.728316e-05	-9.728316e-05	7.007289e-03	-6.573031e-03
6             	3.983665e-03	3.848504e-20	-4.484242e-04	1.121060e-05	8.601657e-03	9.959162e-05	2.003043e-03	1.980622e-03	9.959162e-05	-9.959162e-05	8.377445e-03	-8.825869e-03
7             	4.063597e-03	4.915925e-20	-9.064116e-04	2.266029e-05	9.601501e-03	1.015899e-04	2.054459e-03	2.009138e-03	1.015899e-04	-1.015899e-04	9.148295e-03	-1.005471e-02
8             	4.129813e-03	4.624974e-20	-1.293429e-03	3.233572e-05	1.043257e-02	1.032453e-04	2.097242e-03	2.032571e-03	1.032453e-04	-1.032453e-04	9.785859e-03	-1.107929e-02
9             	4.143330e-03	4.018848e-20	-1.633133e-03	4.082832e-05	1.106843e-02	1.035832e-04	2.112493e-03	2.030837e-03	1.035832e-04	-1.035832e-04	1.025187e-02	-1.188500e-02
10            	4.146551e-03	3.815962e-20	-2.013495e-03	5.033736e-05	1.176430e-02	1.036638e-04	2.123613e-03	2.022938e-03	1.036638e-04	-1.036638e-04	1.075755e-02	-1.277104e-02
11            	4.116849e-03	3.924466e-20	-2.438419e-03	6.096047e-05	1.248115e-02	1.029212e-04	2.119385e-03	1.997464e-03	1.029212e-04	-1.029212e-04	1.126194e-02	-1.370036e-02
12            	4.086803e-03	4.215831e-20	-2.898774e-03	7.246936e-05	1.327458e-02	1.021701e-04	2.115871e-03	1.970932e-03	1.021701e-04	-1.021701e-04	1.182519e-02	-1.472397e-02
13            	4.068269e-03	4.578770e-20	-3.351141e-03	8.377854e-05	1.408620e-02	1.017067e-04	2.117913e-03	1.950356e-03	1.017067e-04	-1.017067e-04	1.241063e-02	-1.576177e-02
14            	4.057083e-03	5.002022e-20	-3.737455e-03	9.343638e-05	1.480131e-02	1.014271e-04	2.121978e-03	1.935105e-03	1.014271e-04	-1.014271e-04	1.293258e-02	-1.667003e-02
15            	4.023042e-03	5.283102e-20	-4.011362e-03	1.002841e-04	1.527082e-02	1.005760e-04	2.111805e-03	1.911237e-03	1.005760e-04	-1.005760e-04	1.326514e-02	-1.727651e-02
16            	4.011774e-03	5.560883e-20	-4.282231e-03	1.070558e-04	1.578640e-02	1.002943e-04	2.112943e-03	1.898831e-03	1.002943e-04	-1.002943e-04	1.364528e-02	-1.792751e-02
17            	4.006396e-03	5.635557e-20	-4.347305e-03	1.086826e-04	1.593461e-02	1.001599e-04	2.111881e-03	1.894515e-03	1.001599e-04	-1.001599e-04	1.376096e-02	-1.810826e-02
18            	3.981505e-03	5.555538e-20	-4.310268e-03	1.077567e-04	1.585062e-02	9.953763e-05	2.098509e-03	1.882996e-03	9.953763e-05	-9.953763e-05	1.369549e-02	-1.800576e-02
19            	3.974628e-03	5.355572e-20	-4.130680e-03	1.032670e-04	1.553242e-02	9.936571e-05	2.090581e-03	1.884047e-03	9.936571e-05	-9.936571e-05	1.346708e-02	-1.759776e-02
20            	3.944499e-03	5.011646e-20	-3.779409e-03	9.448522e-05	1.483768e-02	9.861247e-05	2.066735e-03	1.877764e-03	9.861247e-05	-9.861247e-05	1.294798e-02	-1.672739e-02
21            	3.908961e-03	4.565032e-20	-3.342660e-03	8.356650e-05	1.396405e-02	9.772404e-05	2.038047e-03	1.870914e-03	9.772404e-05	-9.772404e-05	1.229272e-02	-1.563538e-02
22            	3.871279e-03	4.050580e-20	-2.840035e-03	7.100088e-05	1.295396e-02	9.678196e-05	2.006640e-03	1.864638e-03	9.678196e-05	-9.678196e-05	1.153394e-02	-1.437397e-02
23            	3.834120e-03	3.513578e-20	-2.341890e-03	5.854725e-05	1.194598e-02	9.585299e-05	1.975607e-03	1.858513e-03	9.585299e-05	-9.585299e-05	1.077504e-02	-1.311693e-02
24            	3.796795e-03	3.018059e-20	-1.902436e-03	4.756091e-05	1.104220e-02	9.491988e-05	1.945959e-03	1.850837e-03	9.491988e-05	-9.491988e-05	1.009098e-02	-1.199342e-02
25            	3.766498e-03	2.652393e-20	-1.587232e-03	3.968079e-05	1.038166e-02	9.416246e-05	1.922930e-03	1.843568e-03	9.416246e-05	-9.416246e-05	9.588043e-03	-1.117527e-02
26            	3.737823e-03	2.374839e-20	-1.375155e-03	3.437887e-05	9.916123e-03	9.344557e-05	1.903290e-03	1.834533e-03	9.344557e-05	-9.344557e-05	9.228545e-03	-1.060370e-02
27            	3.706657e-03	2.197236e-20	-1.268912e-03	3.172279e-05	9.641181e-03	9.266641e-05	1.885051e-03	1.821605e-03	9.266641e-05	-9.266641e-05	9.006726e-03	-1.027564e-02
28            	3.673287e-03	2.107948e-20	-1.302865e-03	3.257162e-05	9.624318e-03	9.183217e-05	1.869215e-03	1.804072e-03	9.183217e-05	-9.183217e-05	8.972886e-03	-1.027575e-02
29            	3.669214e-03	2.114476e-20	-1.408830e-03	3.522075e-05	9.805248e-03	9.173035e-05	1.869828e-03	1.799386e-03	9.173035e-05	-9.173035e-05	9.100833e-03	-1.050966e-02
30            	3.648143e-03	2.174333e-20	-1.574206e-03	3.935515e-05	1.006425e-02	9.120358e-05	1.863427e-03	1.784717e-03	9.120358e-05	-9.120358e-05	9.277142e-03	-1.085135e-02
31            	3.664896e-03	2.286379e-20	-1.791366e-03	4.478416e-05	1.050783e-02	9.162239e-05	1.877232e-03	1.787664e-03	9.162239e-05	-9.162239e-05	9.612143e-03	-1.140351e-02
32            	3.677277e-03	2.424995e-20	-1.950700e-03	4.876749e-05	1.083618e-02	9.193192e-05	1.887406e-03	1.789871e-03	9.193192e-05	-9.193192e-05	9.860830e-03	-1.181153e-02
33            	3.703890e-03	2.540666e-20	-2.089646e-03	5.224114e-05	1.116293e-02	9.259724e-05	1.904186e-03	1.799704e-03	9.259724e-05	-9.259724e-05	1.011811e-02	-1.220775e-02
34            	3.735120e-03	2.650681e-20	-2.139669e-03	5.349172e-05	1.133557e-02	9.337800e-05	1.921052e-03	1.814068e-03	9.337800e-05	-9.337800e-05	1.026574e-02	-1.240541e-02
35            	3.769434e-03	2.703081e-20	-2.068995e-03	5.172487e-05	1.128533e-02	9.423586e-05	1.936442e-03	1.832992e-03	9.423586e-05	-9.423586e-05	1.025084e-02	-1.231983e-02
36            	3.803493e-03	2.645662e-20	-1.890156e-03	4.725390e-05	1.102374e-02	9.508732e-05	1.949000e-03	1.854492e-03	9.508732e-05	-9.508732e-05	1.007866e-02	-1.196882e-02
37            	3.830451e-03	2.582497e-20	-1.544427e-03	3.861067e-05	1.042601e-02	9.576128e-05	1.953836e-03	1.876615e-03	9.576128e-05	-9.576128e-05	9.653800e-03	-1.119823e-02
38            	3.823293e-03	2.346890e-20	-1.195876e-03	2.989691e-05	9.742661e-03	9.558232e-05	1.941543e-03	1.881749e-03	9.558232e-05	-9.558232e-05	9.144723e-03	-1.034060e-02
39            	3.813899e-03	2.215429e-20	-9.025743e-04	2.256436e-05	9.157217e-03	9.534747e-05	1.929514e-03	1.884385e-03	9.534747e-05	-9.534747e-05	8.705930e-03	-9.608505e-03
40            	3.766358e-03	2.062568e-20	-7.178564e-04	1.794641e-05	8.693341e-03	9.415896e-05	1.901126e-03	1.865233e-03	9.415896e-05	-9.415896e-05	8.334413e-03	-9.052269e-03
41            	3.729720e-03	1.987411e-20	-7.419729e-04	1.854932e-05	8.645832e-03	9.324299e-05	1.883409e-03	1.846310e-03	9.324299e-05	-9.324299e-05	8.274846e-03	-9.016819e-03
42            	3.690883e-03	1.954288e-20	-8.824620e-04	2.206155e-05	8.806502e-03	9.227207e-05	1.867503e-03	1.823380e-03	9.227207e-05	-9.227207e-05	8.365271e-03	-9.247733e-03
43            	3.676933e-03	2.002162e-20	-1.168258e-03	2.920645e-05	9.290852e-03	9.192332e-05	1.867673e-03	1.809260e-03	9.192332e-05	-9.192332e-05	8.706723e-03	-9.874981e-03
44            	3.680439e-03	2.216650e-20	-1.534385e-03	3.835961e-05	9.968932e-03	9.201097e-05	1.878579e-03	1.801860e-03	9.201097e-05	-9.201097e-05	9.201740e-03	-1.073612e-02
45            	3.698157e-03	2.595309e-20	-1.895171e-03	4.737928e-05	1.067650e-02	9.245392e-05	1.896458e-03	1.801699e-03	9.245392e-05	-9.245392e-05	9.728918e-03	-1.162409e-02
46            	3.724205e-03	2.975859e-20	-2.240416e-03	5.601040e-05	1.137804e-02	9.310512e-05	1.918113e-03	1.806092e-03	9.310512e-05	-9.310512e-05	1.025783e-02	-1.249825e-02
47            	3.767264e-03	3.297258e-20	-2.531859e-03	6.329648e-05	1.202449e-02	9.418160e-05	1.946929e-03	1.820336e-03	9.418160e-05	-9.418160e-05	1.075856e-02	-1.329042e-02
48            	3.838506e-03	3.541985e-20	-2.655435e-03	6.638589e-05	1.242876e-02	9.596266e-05	1.985639e-03	1.852867e-03	9.596266e-05	-9.596266e-05	1.110104e-02	-1.375647e-02
49            	3.905682e-03	3.684530e-20	-2.505623e-03	6.264057e-05	1.230940e-02	9.764206e-05	2.015482e-03	1.890201e-03	9.764206e-05	-9.764206e-05	1.105659e-02	-1.356221e-02
50            	3.936348e-03	3.685710e-20	-2.123647e-03	5.309117e-05	1.166889e-02	9.840871e-05	2.021265e-03	1.915083e-03	9.840871e-05	-9.840871e-05	1.060706e-02	-1.273071e-02
51            	3.917843e-03	3.501246e-20	-1.684088e-03	4.210219e-05	1.080238e-02	9.794607e-05	2.001024e-03	1.916819e-03	9.794607e-05	-9.794607e-05	9.960333e-03	-1.164442e-02
52            	3.877735e-03	3.169407e-20	-1.397982e-03	3.494956e-05	1.016990e-02	9.694338e-05	1.973817e-03	1.903918e-03	9.694338e-05	-9.694338e-05	9.470908e-03	-1.086889e-02
53            	3.827947e-03	2.922021e-20	-1.294126e-03	3.235315e-05	9.859318e-03	9.569867e-05	1.946327e-03	1.881620e-03	9.569867e-05	-9.569867e-05	9.212255e-03	-1.050638e-02
54            	3.770919e-03	2.755221e-20	-1.372624e-03	3.431559e-05	9.873162e-03	9.427298e-05	1.919775e-03	1.851144e-03	9.427298e-05	-9.427298e-05	9.186850e-03	-1.055947e-02
55            	3.749326e-03	2.706001e-20	-1.659468e-03	4.148670e-05	1.035177e-02	9.373316e-05	1.916150e-03	1.833176e-03	9.373316e-05	-9.373316e-05	9.522034e-03	-1.118150e-02
56            	3.749778e-03	2.830437e-20	-2.038839e-03	5.097098e-05	1.105545e-02	9.374446e-05	1.925860e-03	1.823918e-03	9.374446e-05	-9.374446e-05	1.003603e-02	-1.207487e-02
57            	3.756125e-03	3.140104e-20	-2.392871e-03	5.982178e-05	1.173767e-02	9.390313e-05	1.937884e-03	1.818241e-03	9.390313e-05	-9.390313e-05	1.054123e-02	-1.293410e-02
58            	3.763079e-03	3.405558e-20	-2.723059e-03	6.807648e-05	1.238358e-02	9.407697e-05	1.949616e-03	1.813463e-03	9.407697e-05	-9.407697e-05	1.102205e-02	-1.374511e-02
59            	3.802407e-03	3.649091e-20	-2.994909e-03	7.487272e-05	1.299991e-02	9.506018e-05	1.976076e-03	1.826331e-03	9.506018e-05	-9.506018e-05	1.150246e-02	-1.449737e-02
60            	3.859484e-03	3.809680e-20	-3.080823e-03	7.702058e-05	1.330778e-02	9.648709e-05	2.006762e-03	1.852721e-03	9.648709e-05	-9.648709e-05	1.176737e-02	-1.484819e-02
61            	3.938163e-03	3.849861e-20	-2.911091e-03	7.277728e-05	1.317363e-02	9.845408e-05	2.041859e-03	1.896304e-03	9.845408e-05	-9.845408e-05	1.171808e-02	-1.462918e-02
62            	3.975630e-03	3.897481e-20	-2.441020e-03	6.102550e-05	1.237730e-02	9.939076e-05	2.048841e-03	1.926790e-03	9.939076e-05	-9.939076e-05	1.115679e-02	-1.359781e-02
63            	3.938447e-03	3.582364e-20	-1.885265e-03	4.713162e-05	1.125396e-02	9.846117e-05	2.016355e-03	1.922092e-03	9.846117e-05	-9.846117e-05	1.031133e-02	-1.219660e-02
64            	3.884963e-03	3.148609e-20	-1.461598e-03	3.653994e-05	1.033602e-02	9.712408e-05	1.979021e-03	1.905942e-03	9.712408e-05	-9.712408e-05	9.605219e-03	-1.106682e-02
65            	3.835605e-03	2.822532e-20	-1.182460e-03	2.956149e-05	9.698446e-03	9.589014e-05	1.947364e-03	1.888241e-03	9.589014e-05	-9.589014e-05	9.107216e-03	-1.028968e-02
66            	3.774782e-03	2.589593e-20	-1.076631e-03	2.691578e-05	9.362249e-03	9.436956e-05	1.914307e-03	1.860475e-03	9.436956e-05	-9.436956e-05	8.823933e-03	-9.900564e-03
67            	3.720633e-03	2.421192e-20	-1.174350e-03	2.935875e-05	9.417801e-03	9.301582e-05	1.889675e-03	1.830958e-03	9.301582e-05	-9.301582e-05	8.830626e-03	-1.000498e-02
68            	3.705087e-03	2.406733e-20	-1.456545e-03	3.641362e-05	9.899391e-03	9.262718e-05	1.888957e-03	1.816130e-03	9.262718e-05	-9.262718e-05	9.171118e-03	-1.062766e-02
69            	3.705427e-03	2.549095e-20	-1.790979e-03	4.477448e-05	1.052050e-02	9.263568e-05	1.897488e-03	1.807939e-03	9.263568e-05	-9.263568e-05	9.625009e-03	-1.141599e-02
70            	3.713167e-03	2.809637e-20	-2.105031e-03	5.262577e-05	1.112947e-02	9.282917e-05	1.909209e-03	1.803958e-03	9.282917e-05	-9.282917e-05	1.007696e-02	-1.218199e-02
71            	3.723952e-03	3.047232e-20	-2.403050e-03	6.007625e-05	1.171976e-02	9.309880e-05	1.922052e-03	1.801900e-03	9.309880e-05	-9.309880e-05	1.051823e-02	-1.292128e-02
72            	3.763858e-03	3.259605e-20	-2.650741e-03	6.626851e-05	1.228819e-02	9.409645e-05	1.948198e-03	1.815661e-03	9.409645e-05	-9.409645e-05	1.096282e-02	-1.361356e-02
73            	3.823941e-03	3.418455e-20	-2.746594e-03	6.866485e-05	1.261907e-02	9.559853e-05	1.980635e-03	1.843306e-03	9.559853e-05	-9.559853e-05	1.124578e-02	-1.399237e-02
74            	3.904889e-03	3.462735e-20	-2.625302e-03	6.563255e-05	1.257956e-02	9.762223e-05	2.018077e-03	1.886812e-03	9.762223e-05	-9.762223e-05	1.126691e-02	-1.389221e-02
75            	3.969617e-03	3.391281e-20	-2.251311e-03	5.628279e-05	1.201925e-02	9.924043e-05	2.041091e-03	1.928526e-03	9.924043e-05	-9.924043e-05	1.089359e-02	-1.314490e-02
76            	3.952429e-03	3.332449e-20	-1.682775e-03	4.206938e-05	1.091397e-02	9.881072e-05	2.018284e-03	1.934145e-03	9.881072e-05	-9.881072e-05	1.007258e-02	-1.175536e-02
77            	3.891978e-03	2.922353e-20	-1.225502e-03	3.063755e-05	9.916983e-03	9.729946e-05	1.976627e-03	1.915352e-03	9.729946e-05	-9.729946e-05	9.304232e-03	-1.052973e-02
78            	3.845774e-03	2.620999e-20	-9.741024e-04	2.435256e-05	9.334197e-03	9.614434e-05	1.947239e-03	1.898534e-03	9.614434e-05	-9.614434e-05	8.847146e-03	-9.821249e-03
79            	3.786610e-03	2.398621e-20	-8.805706e-04	2.201427e-05	9.022450e-03	9.466526e-05	1.915320e-03	1.871291e-03	9.466526e-05	-9.466526e-05	8.582164e-03	-9.462735e-03
80            	3.731370e-03	2.242248e-20	-9.883573e-04	2.470893e-05	9.091663e-03	9.328424e-05	1.890394e-03	1.840976e-03	9.328424e-05	-9.328424e-05	8.597485e-03	-9.585842e-03
81            	3.713271e-03	2.223589e-20	-1.280919e-03	3.202299e-05	9.583659e-03	9.283176e-05	1.888658e-03	1.824612e-03	9.283176e-05	-9.283176e-05	8.943200e-03	-1.022412e-02
82            	3.711555e-03	2.380318e-20	-1.647552e-03	4.118881e-05	1.025471e-02	9.278887e-05	1.896966e-03	1.814588e-03	9.278887e-05	-9.278887e-05	9.430932e-03	-1.107848e-02
83            	3.719340e-03	2.699170e-20	-1.996690e-03	4.991725e-05	1.092598e-02	9.298350e-05	1.909587e-03	1.809753e-03	9.298350e-05	-9.298350e-05	9.927632e-03	-1.192432e-02
84            	3.731393e-03	3.003325e-20	-2.328647e-03	5.821617e-05	1.157911e-02	9.328483e-05	1.923913e-03	1.807480e-03	9.328483e-05	-9.328483e-05	1.041479e-02	-1.274343e-02
85            	3.770392e-03	3.262549e-20	-2.604564e-03	6.511410e-05	1.219624e-02	9.425980e-05	1.950310e-03	1.820082e-03	9.425980e-05	-9.425980e-05	1.089396e-02	-1.349853e-02
86            	3.834691e-03	3.466815e-20	-2.724079e-03	6.810197e-05	1.257996e-02	9.586726e-05	1.985447e-03	1.849243e-03	9.586726e-05	-9.586726e-05	1.121792e-02	-1.394200e-02
87            	3.924355e-03	3.555786e-20	-2.587990e-03	6.469974e-05	1.253109e-02	9.810887e-05	2.026877e-03	1.897478e-03	9.810887e-05	-9.810887e-05	1.123709e-02	-1.382508e-02
88            	3.988330e-03	3.486103e-20	-2.196679e-03	5.491697e-05	1.193668e-02	9.970826e-05	2.049082e-03	1.939248e-03	9.970826e-05	-9.970826e-05	1.083834e-02	-1.303502e-02
89            	3.959592e-03	3.419985e-20	-1.631802e-03	4.079506e-05	1.081558e-02	9.898980e-05	2.020591e-03	1.939001e-03	9.898980e-05	-9.898980e-05	9.999677e-03	-1.163148e-02
90            	3.893116e-03	3.010551e-20	-1.228296e-03	3.070740e-05	9.907547e-03	9.732790e-05	1.977265e-03	1.915851e-03	9.732790e-05	-9.732790e-05	9.293399e-03	-1.052169e-02
91            	3.840849e-03	2.733154e-20	-1.026938e-03	2.567345e-05	9.406590e-03	9.602123e-05	1.946098e-03	1.894751e-03	9.602123e-05	-9.602123e-05	8.893121e-03	-9.920059e-03
92            	3.782703e-03	2.543987e-20	-1.009531e-03	2.523828e-05	9.239735e-03	9.456758e-05	1.916590e-03	1.866113e-03	9.456758e-05	-9.456758e-05	8.734970e-03	-9.744501e-03
93            	3.734874e-03	2.378361e-20	-1.186109e-03	2.965273e-05	9.452186e-03	9.337186e-05	1.897090e-03	1.837784e-03	9.337186e-05	-9.337186e-05	8.859132e-03	-1.004524e-02
94            	3.725290e-03	2.416799e-20	-1.527075e-03	3.817688e-05	1.005591e-02	9.313224e-05	1.900822e-03	1.824468e-03	9.313224e-05	-9.313224e-05	9.292372e-03	-1.081945e-02
95            	3.726961e-03	2.623683e-20	-1.902898e-03	4.757244e-05	1.075823e-02	9.317402e-05	1.911053e-03	1.815908e-03	9.317402e-05	-9.317402e-05	9.806779e-03	-1.170968e-02
96            	3.738485e-03	2.938418e-20	-2.248322e-03	5.620806e-05	1.143472e-02	9.346214e-05	1.925451e-03	1.813035e-03	9.346214e-05	-9.346214e-05	1.031056e-02	-1.255889e-02
97            	3.754838e-03	3.214184e-20	-2.551346e-03	6.378364e-05	1.204890e-02	9.387094e-05	1.941203e-03	1.813635e-03	9.387094e-05	-9.387094e-05	1.077323e-02	-1.332458e-02
98            	3.801346e-03	3.449495e-20	-2.783874e-03	6.959686e-05	1.260649e-02	9.503365e-05	1.970270e-03	1.831076e-03	9.503365e-05	-9.503365e-05	1.121455e-02	-1.399843e-02
99            	3.874597e-03	3.607672e-20	-2.818793e-03	7.046984e-05	1.285094e-02	9.686494e-05	2.007769e-03	1.866829e-03	9.686494e-05	-9.686494e-05	1.144154e-02	-1.426033e-02
100           	3.957506e-03	3.644757e-20	-2.572919e-03	6.432297e-05	1.257853e-02	9.893766e-05	2.043076e-03	1.914430e-03	9.893766e-05	-9.893766e-05	1.129208e-02	-1.386499e-02
101           	3.976707e-03	3.661548e-20	-2.058141e-03	5.145353e-05	1.165709e-02	9.941767e-05	2.039807e-03	1.936900e-03	9.941767e-05	-9.941767e-05	1.062802e-02	-1.268616e-02
102           	3.926262e-03	3.304289e-20	-1.532859e-03	3.832148e-05	1.055946e-02	9.815656e-05	2.001453e-03	1.924810e-03	9.815656e-05	-9.815656e-05	9.793030e-03	-1.132589e-02
103           	3.879617e-03	2.925554e-20	-1.195981e-03	2.989953e-05	9.816421e-03	9.699042e-05	1.969708e-03	1.909909e-03	9.699042e-05	-9.699042e-05	9.218431e-03	-1.041441e-02
104           	3.821711e-03	2.658532e-20	-1.005142e-03	2.512856e-05	9.324864e-03	9.554279e-05	1.935984e-03	1.885727e-03	9.554279e-05	-9.554279e-05	8.822293e-03	-9.827435e-03
105           	3.762487e-03	2.461197e-20	-1.019558e-03	2.548896e-05	9.215355e-03	9.406217e-05	1.906732e-03	1.855754e-03	9.406217e-05	-9.406217e-05	8.705576e-03	-9.725135e-03
106           	3.721894e-03	2.347767e-20	-1.226509e-03	3.066272e-05	9.500577e-03	9.304734e-05	1.891609e-03	1.830284e-03	9.304734e-05	-9.304734e-05	8.887323e-03	-1.011383e-02
107           	3.714751e-03	2.430880e-20	-1.573577e-03	3.933943e-05	1.012235e-02	9.286877e-05	1.896715e-03	1.818036e-03	9.286877e-05	-9.286877e-05	9.335560e-03	-1.090914e-02
108           	3.720531e-03	2.652837e-20	-1.949637e-03	4.874092e-05	1.083553e-02	9.301329e-05	1.909007e-03	1.811525e-03	9.301329e-05	-9.301329e-05	9.860714e-03	-1.181035e-02
109           	3.736834e-03	2.961325e-20	-2.287434e-03	5.718586e-05	1.150889e-02	9.342085e-05	1.925603e-03	1.811231e-03	9.342085e-05	-9.342085e-05	1.036517e-02	-1.265261e-02
110           	3.757030e-03	3.223338e-20	-2.571258e-03	6.428146e-05	1.209705e-02	9.392575e-05	1.942796e-03	1.814233e-03	9.392575e-05	-9.392575e-05	1.081142e-02	-1.338268e-02
111           	3.808145e-03	3.444977e-20	-2.776287e-03	6.940717e-05	1.261322e-02	9.520362e-05	1.973480e-03	1.834665e-03	9.520362e-05	-9.520362e-05	1.122508e-02	-1.400137e-02
112           	3.885949e-03	3.588565e-20	-2.770648e-03	6.926620e-05	1.278974e-02	9.714872e-05	2.012241e-03	1.873708e-03	9.714872e-05	-9.714872e-05	1.140442e-02	-1.417506e-02
113           	3.966682e-03	3.597484e-20	-2.490320e-03	6.225801e-05	1.244601e-02	9.916704e-05	2.045599e-03	1.921083e-03	9.916704e-05	-9.916704e-05	1.120085e-02	-1.369117e-02
114           	3.975384e-03	3.596484e-20	-1.954296e-03	4.885740e-05	1.146166e-02	9.938460e-05	2.036549e-03	1.938835e-03	9.938460e-05	-9.938460e-05	1.048451e-02	-1.243881e-02
115           	3.920782e-03	3.215001e-20	-1.442555e-03	3.606387e-05	1.037917e-02	9.801956e-05	1.996455e-03	1.924327e-03	9.801956e-05	-9.801956e-05	9.657895e-03	-1.110045e-02
116           	3.872543e-03	2.851929e-20	-1.129598e-03	2.823996e-05	9.677346e-03	9.681358e-05	1.964512e-03	1.908032e-03	9.681358e-05	-9.681358e-05	9.112547e-03	-1.024215e-02
117           	3.815213e-03	2.591845e-20	-9.641572e-04	2.410393e-05	9.235021e-03	9.538033e-05	1.931711e-03	1.883503e-03	9.538033e-05	-9.538033e-05	8.752942e-03	-9.717099e-03
118           	3.757064e-03	2.403979e-20	-9.992205e-04	2.498051e-05	9.165412e-03	9.392659e-05	1.903512e-03	1.853551e-03	9.392659e-05	-9.392659e-05	8.665802e-03	-9.665022e-03
119           	3.720229e-03	2.311173e-20	-1.226293e-03	3.065733e-05	9.495236e-03	9.300572e-05	1.890772e-03	1.829457e-03	9.300572e-05	-9.300572e-05	8.882089e-03	-1.010838e-02
120           	3.714413e-03	2.416615e-20	-1.584537e-03	3.961343e-05	1.014088e-02	9.286032e-05	1.896820e-03	1.817593e-03	9.286032e-05	-9.286032e-05	9.348607e-03	-1.093314e-02
121           	3.713649e-03	2.703659e-20	-1.928167e-03	4.820416e-05	1.078216e-02	9.284122e-05	1.905029e-03	1.808620e-03	9.284122e-05	-9.284122e-05	9.818081e-03	-1.174625e-02
122           	3.728348e-03	2.938708e-20	-2.325870e-03	5.814675e-05	1.156040e-02	9.320870e-05	1.922321e-03	1.806027e-03	9.320870e-05	-9.320870e-05	1.039747e-02	-1.272334e-02
123           	3.775446e-03	3.236807e-20	-2.631180e-03	6.577950e-05	1.224892e-02	9.438616e-05	1.953503e-03	1.821944e-03	9.438616e-05	-9.438616e-05	1.093333e-02	-1.356451e-02
124           	3.827032e-03	3.458799e-20	-2.774377e-03	6.935942e-05	1.265082e-02	9.567580e-05	1.982875e-03	1.844157e-03	9.567580e-05	-9.567580e-05	1.126363e-02	-1.403801e-02
125           	3.907571e-03	3.589885e-20	-2.733046e-03	6.832615e-05	1.276350e-02	9.768928e-05	2.022112e-03	1.885460e-03	9.768928e-05	-9.768928e-05	1.139697e-02	-1.413002e-02
126           	3.980959e-03	3.590069e-20	-2.414387e-03	6.035966e-05	1.233124e-02	9.952397e-05	2.050839e-03	1.930120e-03	9.952397e-05	-9.952397e-05	1.112405e-02	-1.353843e-02
127           	3.973680e-03	3.586265e-20	-1.865836e-03	4.664591e-05	1.128962e-02	9.934199e-05	2.033486e-03	1.940194e-03	9.934199e-05	-9.934199e-05	1.035670e-02	-1.222254e-02
128           	3.915913e-03	3.185016e-20	-1.381994e-03	3.454985e-05	1.025196e-02	9.789783e-05	1.992507e-03	1.923407e-03	9.789783e-05	-9.789783e-05	9.560963e-03	-1.094296e-02
129           	3.868433e-03	2.845429e-20	-1.096892e-03	2.742230e-05	9.604053e-03	9.671082e-05	1.961639e-03	1.906794e-03	9.671082e-05	-9.671082e-05	9.055607e-03	-1.015250e-02
130           	3.811477e-03	2.604104e-20	-9.656931e-04	2.414233e-05	9.226999e-03	9.528693e-05	1.929881e-03	1.881596e-03	9.528693e-05	-9.528693e-05	8.744153e-03	-9.709846e-03
131           	3.749218e-03	2.398701e-20	-1.024413e-03	2.561034e-05	9.190506e-03	9.373044e-05	1.900219e-03	1.848999e-03	9.373044e-05	-9.373044e-05	8.678299e-03	-9.702712e-03
132           	3.725042e-03	2.336367e-20	-1.299202e-03	3.248006e-05	9.637166e-03	9.312604e-05	1.895001e-03	1.830041e-03	9.312604e-05	-9.312604e-05	8.987565e-03	-1.028677e-02
133           	3.720021e-03	2.462342e-20	-1.661102e-03	4.152754e-05	1.029203e-02	9.300053e-05	1.901538e-03	1.818483e-03	9.300053e-05	-9.300053e-05	9.461477e-03	-1.112258e-02
134           	3.723819e-03	2.764468e-20	-2.013589e-03	5.033971e-05	1.096116e-02	9.309548e-05	1.912249e-03	1.811570e-03	9.309548e-05	-9.309548e-05	9.954365e-03	-1.196795e-02
135           	3.729703e-03	3.063802e-20	-2.365460e-03	5.913651e-05	1.163846e-02	9.324258e-05	1.923988e-03	1.805715e-03	9.324258e-05	-9.324258e-05	1.045573e-02	-1.282119e-02
136           	3.766471e-03	3.329010e-20	-2.672419e-03	6.681047e-05	1.230824e-02	9.416177e-05	1.950046e-03	1.816425e-03	9.416177e-05	-9.416177e-05	1.097203e-02	-1.364445e-02
137           	3.824865e-03	3.553374e-20	-2.830230e-03	7.075576e-05	1.275299e-02	9.562161e-05	1.983188e-03	1.841676e-03	9.562161e-05	-9.562161e-05	1.133787e-02	-1.416810e-02
138           	3.912159e-03	3.654522e-20	-2.762402e-03	6.906006e-05	1.283083e-02	9.780397e-05	2.025140e-03	1.887019e-03	9.780397e-05	-9.780397e-05	1.144963e-02	-1.421203e-02
139           	3.988473e-03	3.610812e-20	-2.413356e-03	6.033390e-05	1.234560e-02	9.971182e-05	2.054570e-03	1.933903e-03	9.971182e-05	-9.971182e-05	1.113892e-02	-1.355228e-02
140           	3.981571e-03	3.571938e-20	-1.834918e-03	4.587296e-05	1.124626e-02	9.953928e-05	2.036659e-03	1.944913e-03	9.953928e-05	-9.953928e-05	1.032880e-02	-1.216372e-02
141           	3.914586e-03	3.144785e-20	-1.351759e-03	3.379399e-05	1.018925e-02	9.786466e-05	1.991087e-03	1.923499e-03	9.786466e-05	-9.786466e-05	9.513372e-03	-1.086513e-02
142           	3.864323e-03	2.816865e-20	-1.075075e-03	2.687688e-05	9.551260e-03	9.660809e-05	1.959039e-03	1.905285e-03	9.660809e-05	-9.660809e-05	9.013723e-03	-1.008880e-02
143           	3.798679e-03	2.581098e-20	-9.721479e-04	2.430370e-05	9.208506e-03	9.496697e-05	1.923643e-03	1.875036e-03	9.496697e-05	-9.496697e-05	8.722432e-03	-9.694580e-03
144           	3.740005e-03	2.402727e-20	-1.080627e-03	2.701567e-05	9.273000e-03	9.350013e-05	1.897018e-03	1.842987e-03	9.350013e-05	-9.350013e-05	8.732687e-03	-9.813313e-03
145           	3.721873e-03	2.369327e-20	-1.383935e-03	3.459838e-05	9.785334e-03	9.304682e-05	1.895535e-03	1.826338e-03	9.304682e-05	-9.304682e-05	9.093367e-03	-1.047730e-02
146           	3.720089e-03	2.531046e-20	-1.754071e-03	4.385178e-05	1.046510e-02	9.300222e-05	1.903896e-03	1.816193e-03	9.300222e-05	-9.300222e-05	9.588067e-03	-1.134214e-02
147           	3.726968e-03	2.839291e-20	-2.102499e-03	5.256248e-05	1.113515e-02	9.317420e-05	1.916046e-03	1.810921e-03	9.317420e-05	-9.317420e-05	1.008390e-02	-1.218640e-02
148           	3.736841e-03	3.126540e-20	-2.435632e-03	6.089079e-05	1.178769e-02	9.342103e-05	1.929311e-03	1.807530e-03	9.342103e-05	-9.342103e-05	1.056987e-02	-1.300551e-02
149           	3.776464e-03	3.378892e-20	-2.715962e-03	6.789905e-05	1.241652e-02	9.441160e-05	1.956131e-03	1.820333e-03	9.441160e-05	-9.441160e-05	1.105854e-02	-1.377450e-02
150           	3.838789e-03	3.573081e-20	-2.836207e-03	7.090517e-05	1.279893e-02	9.596973e-05	1.990300e-03	1.848490e-03	9.596973e-05	-9.596973e-05	1.138082e-02	-1.421703e-02
151           	3.927057e-03	3.644131e-20	-2.714854e-03	6.787135e-05	1.277613e-02	9.817642e-05	2.031400e-03	1.895657e-03	9.817642e-05	-9.817642e-05	1.141871e-02	-1.413356e-02
152           	3.993182e-03	3.579400e-20	-2.320768e-03	5.801920e-05	1.218271e-02	9.982954e-05	2.054610e-03	1.938572e-03	9.982954e-05	-9.982954e-05	1.102233e-02	-1.334309e-02
153           	3.969265e-03	3.512452e-20	-1.741535e-03	4.353837e-05	1.104456e-02	9.923163e-05	2.028171e-03	1.941094e-03	9.923163e-05	-9.923163e-05	1.017379e-02	-1.191533e-02
154           	3.901139e-03	3.082966e-20	-1.297533e-03	3.243832e-05	1.005747e-02	9.752848e-05	1.983008e-03	1.918131e-03	9.752848e-05	-9.752848e-05	9.408701e-03	-1.070623e-02
155           	3.848769e-03	2.778618e-20	-1.051408e-03	2.628521e-05	9.472494e-03	9.621923e-05	1.950670e-03	1.898099e-03	9.621923e-05	-9.621923e-05	8.946790e-03	-9.998198e-03
156           	3.789453e-03	2.563416e-20	-9.890347e-04	2.472587e-05	9.219500e-03	9.473633e-05	1.919452e-03	1.870001e-03	9.473633e-05	-9.473633e-05	8.724982e-03	-9.714017e-03
157           	3.734014e-03	2.375550e-20	-1.123754e-03	2.809384e-05	9.338396e-03	9.335034e-05	1.895101e-03	1.838913e-03	9.335034e-05	-9.335034e-05	8.776519e-03	-9.900272e-03
158           	3.720629e-03	2.379857e-20	-1.448593e-03	3.621483e-05	9.902150e-03	9.301573e-05	1.896529e-03	1.824100e-03	9.301573e-05	-9.301573e-05	9.177854e-03	-1.062645e-02
159           	3.720085e-03	2.566140e-20	-1.819427e-03	4.548568e-05	1.058856e-02	9.300212e-05	1.905528e-03	1.814557e-03	9.300212e-05	-9.300212e-05	9.678846e-03	-1.149827e-02
160           	3.729716e-03	2.876607e-20	-2.165441e-03	5.413602e-05	1.126124e-02	9.324289e-05	1.918994e-03	1.810722e-03	9.324289e-05	-9.324289e-05	1.017852e-02	-1.234396e-02
161           	3.742854e-03	3.155651e-20	-2.482527e-03	6.206316e-05	1.189253e-02	9.357134e-05	1.933490e-03	1.809364e-03	9.357134e-05	-9.357134e-05	1.065126e-02	-1.313379e-02
162           	3.785378e-03	3.397944e-20	-2.740566e-03	6.851414e-05	1.248790e-02	9.463445e-05	1.961203e-03	1.824175e-03	9.463445e-05	-9.463445e-05	1.111762e-02	-1.385818e-02
163           	3.852149e-03	3.574388e-20	-2.822843e-03	7.057107e-05	1.280789e-02	9.630373e-05	1.996646e-03	1.855504e-03	9.630373e-05	-9.630373e-05	1.139647e-02	-1.421931e-02
164           	3.937968e-03	3.630287e-20	-2.649922e-03	6.624805e-05	1.268132e-02	9.844919e-05	2.035232e-03	1.902736e-03	9.844919e-05	-9.844919e-05	1.135636e-02	-1.400628e-02
165           	3.993921e-03	3.537813e-20	-2.224043e-03	5.560109e-05	1.200414e-02	9.984804e-05	2.052562e-03	1.941360e-03	9.984804e-05	-9.984804e-05	1.089212e-02	-1.311616e-02
166           	3.957765e-03	3.442861e-20	-1.643811e-03	4.109529e-05	1.083710e-02	9.894413e-05	2.019978e-03	1.937787e-03	9.894413e-05	-9.894413e-05	1.001519e-02	-1.165900e-02
167           	3.890456e-03	3.016207e-20	-1.235518e-03	3.088795e-05	9.917933e-03	9.726139e-05	1.976116e-03	1.914340e-03	9.726139e-05	-9.726139e-05	9.300174e-03	-1.053569e-02
168           	3.836742e-03	2.742071e-20	-1.025114e-03	2.562785e-05	9.398387e-03	9.591854e-05	1.943999e-03	1.892743e-03	9.591854e-05	-9.591854e-05	8.885830e-03	-9.910944e-03