# Force coefficients
# dragDir     : (1.000000e+00 0.000000e+00 0.000000e+00)
# sideDir     : (0.000000e+00 0.000000e+00 -1.000000e+00)
# liftDir     : (0.000000e+00 1.000000e+00 0.000000e+00)
# rollAxis    : (1.000000e+00 0.000000e+00 0.000000e+00)
# pitchAxis   : (0.000000e+00 0.000000e+00 -1.000000e+00)
# yawAxis     : (0.000000e+00 1.000000e+00 0.000000e+00)
# magUInf     : 4.000000e-02
# lRef        : 1.000000e-01
# Aref        : 1.000000e-01
# CofR        : (0.000000e+00 0.000000e+00 0.000000e+00)
#
# Time        	Cd            	Cs            	Cl            	CmRoll        	CmPitch       	CmYaw         	Cd(f)         	Cd(r)         	Cs(f)         	Cs(r)         	Cl(f)         	Cl(r)         
1             	3.420336e-03	9.426118e-20	-1.710108e-04	4.275269e-06	7.104410e-03	8.550840e-05	1.714443e-03	1.705893e-03	8.550840e-05	-8.550840e-05	7.018905e-03	-7.189915e-03
2             	1.626929e-02	6.666499e-20	-2.771246e-05	6.928114e-07	3.242221e-02	4.067322e-04	8.135336e-03	8.133950e-03	4.067322e-04	-4.067322e-04	3.240835e-02	-3.243607e-02
3             	2.019562e-02	-3.895092e-20	4.278699e-04	-1.069675e-05	3.953891e-02	5.048906e-04	1.008712e-02	1.010851e-02	5.048906e-04	-5.048906e-04	3.975284e-02	-3.932497e-02
4             	2.046344e-02	-6.835970e-20	4.335904e-04	-1.083976e-05	4.008600e-02	5.115861e-04	1.022088e-02	1.024256e-02	5.115861e-04	-5.115861e-04	4.030280e-02	-3.986921e-02
5             	2.035011e-02	-5.476027e-20	2.071457e-04	-5.178644e-06	4.024105e-02	5.087527e-04	1.016988e-02	1.018023e-02	5.087527e-04	-5.087527e-04	4.034462e-02	-4.013747e-02
6             	2.038250e-02	-4.939446e-20	1.235890e-04	-3.089726e-06	4.045394e-02	5.095626e-04	1.018816e-02	1.019434e-02	5.095626e-04	-5.095626e-04	4.051573e-02	-4.039214e-02
7             	2.033752e-02	-4.398127e-20	1.558120e-04	-3.895300e-06	4.032411e-02	5.084379e-04	1.016486e-02	1.017265e-02	5.084379e-04	-5.084379e-04	4.040202e-02	-4.024621e-02
8             	2.000224e-02	-4.209766e-20	2.812767e-04	-7.031919e-06	3.946772e-02	5.000559e-04	9.994087e-03	1.000815e-02	5.000559e-04	-5.000559e-04	3.960836e-02	-3.932708e-02
9             	1.955254e-02	-4.097803e-20	4.336185e-04	-1.084046e-05	3.834000e-02	4.888134e-04	9.765427e-03	9.787108e-03	4.888134e-04	-4.888134e-04	3.855681e-02	-3.812319e-02
10            	1.911085e-02	-4.372140e-20	6.111777e-04	-1.527944e-05	3.719130e-02	4.777713e-04	9.540147e-03	9.570706e-03	4.777713e-04	-4.777713e-04	3.749688e-02	-3.688571e-02
11            	1.868948e-02	-4.600922e-20	7.977406e-04	-1.994352e-05	3.606788e-02	4.672369e-04	9.324794e-03	9.364681e-03	4.672369e-04	-4.672369e-04	3.646675e-02	-3.566901e-02
12            	1.834283e-02	-4.716333e-20	9.787613e-04	-2.446903e-05	3.510058e-02	4.585708e-04	9.146946e-03	9.195884e-03	4.585708e-04	-4.585708e-04	3.558996e-02	-3.461120e-02
13            	1.808812e-02	-4.816971e-20	1.142969e-03	-2.857422e-05	3.434196e-02	4.522030e-04	9.015485e-03	9.072633e-03	4.522030e-04	-4.522030e-04	3.491345e-02	-3.377048e-02
14            	1.796478e-02	-4.954570e-20	1.273563e-03	-3.183907e-05	3.389758e-02	4.491195e-04	8.950551e-03	9.014229e-03	4.491195e-04	-4.491195e-04	3.453437e-02	-3.326080e-02
15            	1.787803e-02	-4.967702e-20	1.378471e-03	-3.446176e-05	3.356676e-02	4.469508e-04	8.904553e-03	8.973477e-03	4.469508e-04	-4.469508e-04	3.425599e-02	-3.287752e-02
16            	1.782043e-02	-4.887585e-20	1.445775e-03	-3.614437e-05	3.335227e-02	4.455108e-04	8.874072e-03	8.946361e-03	4.455108e-04	-4.455108e-04	3.407515e-02	-3.262938e-02
17            	1.780397e-02	-4.814639e-20	1.478765e-03	-3.696912e-05	3.327464e-02	4.450993e-04	8.865016e-03	8.938954e-03	4.450993e-04	-4.450993e-04	3.401402e-02	-3.253525e-02
18            	1.781780e-02	-4.750156e-20	1.480915e-03	-3.702288e-05	3.330697e-02	4.454450e-04	8.871877e-03	8.945923e-03	4.454450e-04	-4.454450e-04	3.404743e-02	-3.256651e-02
19            	1.784378e-02	-4.671786e-20	1.456572e-03	-3.641430e-05	3.340630e-02	4.460945e-04	8.885476e-03	8.958304e-03	4.460945e-04	-4.460945e-04	3.413458e-02	-3.267801e-02
20            	1.785936e-02	-4.580986e-20	1.413313e-03	-3.533281e-05	3.351407e-02	4.464840e-04	8.894348e-03	8.965013e-03	4.464840e-04	-4.464840e-04	3.422073e-02	-3.280741e-02
21            	1.784176e-02	-4.372630e-20	1.353463e-03	-3.383658e-05	3.358119e-02	4.460440e-04	8.887044e-03	8.954717e-03	4.460440e-04	-4.460440e-04	3.425792e-02	-3.290446e-02
22            	1.786991e-02	-4.209706e-20	1.286476e-03	-3.216191e-05	3.374880e-02	4.467478e-04	8.902795e-03	8.967119e-03	4.467478e-04	-4.467478e-04	3.439204e-02	-3.310556e-02
23            	1.787475e-02	-3.974913e-20	1.217257e-03	-3.043143e-05	3.387216e-02	4.468688e-04	8.906945e-03	8.967808e-03	4.468688e-04	-4.468688e-04	3.448079e-02	-3.326353e-02
24            	1.790255e-02	-3.646471e-20	1.143976e-03	-2.859939e-05	3.404543e-02	4.475637e-04	8.922674e-03	8.979873e-03	4.475637e-04	-4.475637e-04	3.461742e-02	-3.347344e-02
25            	1.789680e-02	-3.442290e-20	1.074928e-03	-2.687321e-05	3.414474e-02	4.474200e-04	8.921526e-03	8.975273e-03	4.474200e-04	-4.474200e-04	3.468220e-02	-3.360727e-02
26            	1.788411e-02	-3.219303e-20	1.007314e-03	-2.518285e-05	3.422589e-02	4.471027e-04	8.916872e-03	8.967238e-03	4.471027e-04	-4.471027e-04	3.472955e-02	-3.372223e-02
27            	1.789250e-02	-2.941403e-20	9.432180e-04	-2.358045e-05	3.434293e-02	4.473125e-04	8.922669e-03	8.969830e-03	4.473125e-04	-4.473125e-04	3.481454e-02	-3.387132e-02
28            	1.788805e-02	-2.772577e-20	8.892727e-04	-2.223182e-05	3.441794e-02	4.472011e-04	8.921791e-03	8.966254e-03	4.472011e-04	-4.472011e-04	3.486258e-02	-3.397331e-02
29            	1.788666e-02	-2.542357e-20	8.466721e-04	-2.116680e-05	3.448076e-02	4.471665e-04	8.922163e-03	8.964497e-03	4.471665e-04	-4.471665e-04	3.490409e-02	-3.405742e-02
30            	1.788537e-02	-2.397838e-20	8.175436e-04	-2.043859e-05	3.452293e-02	4.471341e-04	8.922244e-03	8.963121e-03	4.471341e-04	-4.471341e-04	3.493171e-02	-3.411416e-02
31            	1.788892e-02	-2.277722e-20	8.007256e-04	-2.001814e-05	3.455522e-02	4.472229e-04	8.924440e-03	8.964476e-03	4.472229e-04	-4.472229e-04	3.495558e-02	-3.415486e-02
32            	1.787666e-02	-2.244822e-20	7.954370e-04	-1.988592e-05	3.453798e-02	4.469166e-04	8.918446e-03	8.958218e-03	4.469166e-04	-4.469166e-04	3.493570e-02	-3.414026e-02
33            	1.786572e-02	-2.232261e-20	7.987892e-04	-1.996973e-05	3.450884e-02	4.466429e-04	8.912889e-03	8.952828e-03	4.466429e-04	-4.466429e-04	3.490823e-02	-3.410944e-02
34            	1.787850e-02	-2.242338e-20	8.072475e-04	-2.018119e-05	3.451913e-02	4.469624e-04	8.919067e-03	8.959429e-03	4.469624e-04	-4.469624e-04	3.492275e-02	-3.411551e-02
35            	1.793160e-02	-2.283903e-20	8.130253e-04	-2.032563e-05	3.461407e-02	4.482901e-04	8.945477e-03	8.986128e-03	4.482901e-04	-4.482901e-04	3.502059e-02	-3.420756e-02
36            	1.801528e-02	-2.336967e-20	8.089029e-04	-2.022257e-05	3.478571e-02	4.503820e-04	8.987418e-03	9.027863e-03	4.503820e-04	-4.503820e-04	3.519016e-02	-3.438126e-02
37            	1.812129e-02	-2.389134e-20	7.802697e-04	-1.950674e-05	3.503931e-02	4.530322e-04	9.041136e-03	9.080150e-03	4.530322e-04	-4.530322e-04	3.542944e-02	-3.464917e-02
38            	1.820409e-02	-2.593615e-20	7.239556e-04	-1.809889e-05	3.528899e-02	4.551021e-04	9.083944e-03	9.120141e-03	4.551021e-04	-4.551021e-04	3.565097e-02	-3.492702e-02
39            	1.835012e-02	-2.520113e-20	6.020020e-04	-1.505005e-05	3.576412e-02	4.587529e-04	9.160009e-03	9.190109e-03	4.587529e-04	-4.587529e-04	3.606512e-02	-3.546312e-02
40            	1.849111e-02	-2.483894e-20	4.245039e-04	-1.061260e-05	3.631701e-02	4.622778e-04	9.234944e-03	9.256169e-03	4.622778e-04	-4.622778e-04	3.652926e-02	-3.610476e-02
41            	1.863956e-02	-2.354006e-20	1.778554e-04	-4.446386e-06	3.699038e-02	4.659889e-04	9.315332e-03	9.324225e-03	4.659889e-04	-4.659889e-04	3.707931e-02	-3.690145e-02
42            	1.883055e-02	-2.172784e-20	-1.471841e-04	3.679603e-06	3.787090e-02	4.707637e-04	9.418953e-03	9.411594e-03	4.707637e-04	-4.707637e-04	3.779731e-02	-3.794449e-02
43            	1.909264e-02	-1.968838e-20	-5.355859e-04	1.338965e-05	3.899557e-02	4.773161e-04	9.559711e-03	9.532932e-03	4.773161e-04	-4.773161e-04	3.872777e-02	-3.926336e-02
44            	1.946572e-02	-1.796753e-20	-9.616952e-04	2.404238e-05	4.041234e-02	4.866431e-04	9.756904e-03	9.708819e-03	4.866431e-04	-4.866431e-04	3.993149e-02	-4.089318e-02
45            	1.999649e-02	-1.699095e-20	-1.374683e-03	3.436707e-05	4.213909e-02	4.999122e-04	1.003261e-02	9.963878e-03	4.999122e-04	-4.999122e-04	4.145175e-02	-4.282643e-02
46            	2.068814e-02	-1.717247e-20	-1.711113e-03	4.277782e-05	4.408341e-02	5.172034e-04	1.038685e-02	1.030129e-02	5.172034e-04	-5.172034e-04	4.322785e-02	-4.493897e-02
47            	2.147183e-02	-1.915382e-20	-1.903397e-03	4.758493e-05	4.600442e-02	5.367958e-04	1.078350e-02	1.068833e-02	5.367958e-04	-5.367958e-04	4.505272e-02	-4.695612e-02
48            	2.225323e-02	-2.376520e-20	-1.861354e-03	4.653385e-05	4.757372e-02	5.563308e-04	1.117315e-02	1.108008e-02	5.563308e-04	-5.563308e-04	4.664305e-02	-4.850440e-02
49            	2.290816e-02	-3.171454e-20	-1.491313e-03	3.728282e-05	4.837363e-02	5.727039e-04	1.149136e-02	1.141679e-02	5.727039e-04	-5.727039e-04	4.762798e-02	-4.911929e-02
50            	2.338898e-02	-4.260901e-20	-7.918949e-04	1.979737e-05	4.829619e-02	5.847245e-04	1.171429e-02	1.167469e-02	5.847245e-04	-5.847245e-04	4.790025e-02	-4.869214e-02
51            	2.364824e-02	-5.628169e-20	1.656767e-04	-4.141918e-06	4.734272e-02	5.912061e-04	1.181998e-02	1.182826e-02	5.912061e-04	-5.912061e-04	4.742556e-02	-4.725988e-02
52            	2.369870e-02	-7.009174e-20	1.120680e-03	-2.801701e-05	4.593895e-02	5.924676e-04	1.182133e-02	1.187737e-02	5.924676e-04	-5.924676e-04	4.649929e-02	-4.537861e-02
53            	2.357388e-02	-7.769844e-20	1.794725e-03	-4.486812e-05	4.458550e-02	5.893471e-04	1.174207e-02	1.183181e-02	5.893471e-04	-5.893471e-04	4.548286e-02	-4.368814e-02
54            	2.383815e-02	-8.214754e-20	2.362294e-03	-5.905736e-05	4.410446e-02	5.959538e-04	1.186002e-02	1.197813e-02	5.959538e-04	-5.959538e-04	4.528560e-02	-4.292331e-02
55            	2.402082e-02	-8.428496e-20	2.562122e-03	-6.405304e-05	4.410144e-02	6.005206e-04	1.194636e-02	1.207446e-02	6.005206e-04	-6.005206e-04	4.538250e-02	-4.282038e-02
56            	2.400640e-02	-7.557186e-20	2.360967e-03	-5.902418e-05	4.434624e-02	6.001601e-04	1.194418e-02	1.206223e-02	6.001601e-04	-6.001601e-04	4.552672e-02	-4.316576e-02
57            	2.382048e-02	-6.315241e-20	1.887355e-03	-4.718387e-05	4.465506e-02	5.955120e-04	1.186306e-02	1.195742e-02	5.955120e-04	-5.955120e-04	4.559874e-02	-4.371138e-02
58            	2.360945e-02	-5.252754e-20	1.182115e-03	-2.955289e-05	4.527150e-02	5.902362e-04	1.177517e-02	1.183428e-02	5.902362e-04	-5.902362e-04	4.586255e-02	-4.468044e-02
59            	2.364097e-02	-3.911916e-20	2.104747e-04	-5.261867e-06	4.680814e-02	5.910243e-04	1.181522e-02	1.182575e-02	5.910243e-04	-5.910243e-04	4.691337e-02	-4.670290e-02
60            	2.375812e-02	-3.067566e-20	-7.760388e-04	1.940097e-05	4.855700e-02	5.939530e-04	1.189846e-02	1.185966e-02	5.939530e-04	-5.939530e-04	4.816898e-02	-4.894502e-02
61            	2.410475e-02	-2.301458e-20	-1.743086e-03	4.357715e-05	5.076469e-02	6.026187e-04	1.209595e-02	1.200880e-02	6.026187e-04	-6.026187e-04	4.989315e-02	-5.163623e-02
62            	2.453201e-02	-2.354533e-20	-2.525144e-03	6.312859e-05	5.289592e-02	6.133002e-04	1.232913e-02	1.220287e-02	6.133002e-04	-6.133002e-04	5.163334e-02	-5.415849e-02
63            	2.498401e-02	-3.409574e-20	-2.936895e-03	7.342237e-05	5.454045e-02	6.246002e-04	1.256543e-02	1.241858e-02	6.246002e-04	-6.246002e-04	5.307200e-02	-5.600890e-02
64            	2.565497e-02	-3.446448e-20	-2.967421e-03	7.418554e-05	5.603101e-02	6.413743e-04	1.290167e-02	1.275330e-02	6.413743e-04	-6.413743e-04	5.454730e-02	-5.751472e-02
65            	2.598864e-02	-4.025915e-20	-2.471211e-03	6.178026e-05	5.602846e-02	6.497160e-04	1.305610e-02	1.293254e-02	6.497160e-04	-6.497160e-04	5.479285e-02	-5.726406e-02
66            	2.599439e-02	-4.916478e-20	-1.540247e-03	3.850616e-05	5.467773e-02	6.498598e-04	1.303570e-02	1.295869e-02	6.498598e-04	-6.498598e-04	5.390761e-02	-5.544786e-02
67            	2.568550e-02	-5.939113e-20	-3.573355e-04	8.933388e-06	5.225869e-02	6.421376e-04	1.285169e-02	1.283382e-02	6.421376e-04	-6.421376e-04	5.208002e-02	-5.243736e-02
68            	2.516364e-02	-7.055355e-20	8.945272e-04	-2.236318e-05	4.925045e-02	6.290910e-04	1.255946e-02	1.260418e-02	6.290910e-04	-6.290910e-04	4.969771e-02	-4.880319e-02
69            	2.448821e-02	-7.959210e-20	1.848534e-03	-4.621336e-05	4.634240e-02	6.122053e-04	1.219789e-02	1.229032e-02	6.122053e-04	-6.122053e-04	4.726666e-02	-4.541813e-02
70            	2.416099e-02	-8.097551e-20	2.383014e-03	-5.957536e-05	4.471309e-02	6.040247e-04	1.202092e-02	1.214007e-02	6.040247e-04	-6.040247e-04	4.590460e-02	-4.352158e-02
71            	2.454602e-02	-8.319542e-20	2.750272e-03	-6.875680e-05	4.481871e-02	6.136504e-04	1.220425e-02	1.234176e-02	6.136504e-04	-6.136504e-04	4.619384e-02	-4.344357e-02
72            	2.481808e-02	-8.725007e-20	2.658199e-03	-6.645496e-05	4.545596e-02	6.204520e-04	1.234259e-02	1.247550e-02	6.204520e-04	-6.204520e-04	4.678506e-02	-4.412686e-02
73            	2.486449e-02	-8.156458e-20	2.213018e-03	-5.532544e-05	4.619320e-02	6.216122e-04	1.237692e-02	1.248757e-02	6.216122e-04	-6.216122e-04	4.729971e-02	-4.508669e-02
74            	2.477341e-02	-7.250704e-20	1.423973e-03	-3.559932e-05	4.717316e-02	6.193354e-04	1.235111e-02	1.242231e-02	6.193354e-04	-6.193354e-04	4.788514e-02	-4.646117e-02
75            	2.487509e-02	-6.349271e-20	4.190328e-04	-1.047582e-05	4.890847e-02	6.218772e-04	1.242707e-02	1.244802e-02	6.218772e-04	-6.218772e-04	4.911798e-02	-4.869895e-02
76            	2.494967e-02	-5.278537e-20	-6.893565e-04	1.723391e-05	5.077876e-02	6.237418e-04	1.249207e-02	1.245760e-02	6.237418e-04	-6.237418e-04	5.043408e-02	-5.112344e-02
77            	2.500738e-02	-4.236052e-20	-1.711825e-03	4.279562e-05	5.250778e-02	6.251846e-04	1.254649e-02	1.246090e-02	6.251846e-04	-6.251846e-04	5.165187e-02	-5.336369e-02
78            	2.506241e-02	-3.450381e-20	-2.525672e-03	6.314181e-05	5.393492e-02	6.265603e-04	1.259435e-02	1.246806e-02	6.265603e-04	-6.265603e-04	5.267208e-02	-5.519775e-02
79            	2.542098e-02	-3.003143e-20	-3.079463e-03	7.698656e-05	5.559022e-02	6.355245e-04	1.278748e-02	1.263350e-02	6.355245e-04	-6.355245e-04	5.405049e-02	-5.712995e-02
80            	2.601053e-02	-2.989360e-20	-3.231628e-03	8.079069e-05	5.709735e-02	6.502633e-04	1.308606e-02	1.292448e-02	6.502633e-04	-6.502633e-04	5.548154e-02	-5.871316e-02
81            	2.645101e-02	-3.318962e-20	-2.903045e-03	7.257614e-05	5.755652e-02	6.612753e-04	1.329808e-02	1.315293e-02	6.612753e-04	-6.612753e-04	5.610500e-02	-5.900805e-02
82            	2.656352e-02	-4.163033e-20	-2.089736e-03	5.224339e-05	5.660948e-02	6.640880e-04	1.333400e-02	1.322952e-02	6.640880e-04	-6.640880e-04	5.556461e-02	-5.765435e-02
83            	2.637090e-02	-5.475257e-20	-9.038159e-04	2.259540e-05	5.444778e-02	6.592726e-04	1.320805e-02	1.316286e-02	6.592726e-04	-6.592726e-04	5.399588e-02	-5.489969e-02
84            	2.597937e-02	-6.774487e-20	4.872246e-04	-1.218062e-05	5.151121e-02	6.494843e-04	1.297750e-02	1.300187e-02	6.494843e-04	-6.494843e-04	5.175482e-02	-5.126760e-02
85            	2.527130e-02	-7.933153e-20	1.708666e-03	-4.271664e-05	4.812912e-02	6.317826e-04	1.259294e-02	1.267837e-02	6.317826e-04	-6.317826e-04	4.898346e-02	-4.727479e-02
86            	2.472890e-02	-8.170144e-20	2.341494e-03	-5.853736e-05	4.593274e-02	6.182224e-04	1.230591e-02	1.242299e-02	6.182224e-04	-6.182224e-04	4.710349e-02	-4.476200e-02
87            	2.504150e-02	-8.543639e-20	2.807999e-03	-7.019998e-05	4.570144e-02	6.260375e-04	1.245055e-02	1.259095e-02	6.260375e-04	-6.260375e-04	4.710544e-02	-4.429744e-02
88            	2.525354e-02	-8.843192e-20	2.747484e-03	-6.868711e-05	4.616925e-02	6.313386e-04	1.255809e-02	1.269546e-02	6.313386e-04	-6.313386e-04	4.754299e-02	-4.479551e-02
89            	2.524023e-02	-8.398795e-20	2.301507e-03	-5.753769e-05	4.678428e-02	6.310058e-04	1.256258e-02	1.267765e-02	6.310058e-04	-6.310058e-04	4.793504e-02	-4.563353e-02
90            	2.516964e-02	-7.499295e-20	1.520484e-03	-3.801210e-05	4.779100e-02	6.292410e-04	1.254681e-02	1.262283e-02	6.292410e-04	-6.292410e-04	4.855124e-02	-4.703076e-02
91            	2.526330e-02	-6.652192e-20	5.243920e-04	-1.310980e-05	4.949173e-02	6.315825e-04	1.261854e-02	1.264476e-02	6.315825e-04	-6.315825e-04	4.975393e-02	-4.922953e-02
92            	2.528771e-02	-5.535234e-20	-6.265806e-04	1.566452e-05	5.132793e-02	6.321928e-04	1.265952e-02	1.262819e-02	6.321928e-04	-6.321928e-04	5.101464e-02	-5.164122e-02
93            	2.533020e-02	-4.411979e-20	-1.702313e-03	4.255782e-05	5.311639e-02	6.332549e-04	1.270766e-02	1.262254e-02	6.332549e-04	-6.332549e-04	5.226523e-02	-5.396755e-02
94            	2.537220e-02	-3.572439e-20	-2.546635e-03	6.366589e-05	5.456309e-02	6.343051e-04	1.274977e-02	1.262244e-02	6.343051e-04	-6.343051e-04	5.328977e-02	-5.583641e-02
95            	2.563970e-02	-3.084841e-20	-3.114109e-03	7.785274e-05	5.606048e-02	6.409924e-04	1.289770e-02	1.274200e-02	6.409924e-04	-6.409924e-04	5.450343e-02	-5.761754e-02
96            	2.623237e-02	-3.052330e-20	-3.299415e-03	8.248538e-05	5.762718e-02	6.558093e-04	1.319867e-02	1.303370e-02	6.558093e-04	-6.558093e-04	5.597747e-02	-5.927689e-02
97            	2.668116e-02	-3.266339e-20	-3.024495e-03	7.561237e-05	5.818307e-02	6.670291e-04	1.341619e-02	1.326497e-02	6.670291e-04	-6.670291e-04	5.667082e-02	-5.969532e-02
98            	2.678841e-02	-3.942137e-20	-2.265192e-03	5.662980e-05	5.731220e-02	6.697103e-04	1.345084e-02	1.333758e-02	6.697103e-04	-6.697103e-04	5.617961e-02	-5.844480e-02
99            	2.657908e-02	-5.200126e-20	-1.117916e-03	2.794791e-05	5.518492e-02	6.644769e-04	1.331749e-02	1.326159e-02	6.644769e-04	-6.644769e-04	5.462596e-02	-5.574387e-02
100           	2.618460e-02	-6.504150e-20	2.589966e-04	-6.474916e-06	5.227280e-02	6.546150e-04	1.308582e-02	1.309877e-02	6.546150e-04	-6.546150e-04	5.240230e-02	-5.214330e-02
101           	2.551693e-02	-7.786339e-20	1.600231e-03	-4.000578e-05	4.879472e-02	6.379234e-04	1.271846e-02	1.279847e-02	6.379234e-04	-6.379234e-04	4.959484e-02	-4.799461e-02
102           	2.476262e-02	-8.079683e-20	2.319296e-03	-5.798239e-05	4.604205e-02	6.190654e-04	1.232333e-02	1.243929e-02	6.190654e-04	-6.190654e-04	4.720169e-02	-4.488240e-02
103           	2.500036e-02	-8.218439e-20	2.757888e-03	-6.894720e-05	4.570260e-02	6.250091e-04	1.243124e-02	1.256913e-02	6.250091e-04	-6.250091e-04	4.708155e-02	-4.432366e-02
104           	2.528943e-02	-8.928022e-20	2.776158e-03	-6.940395e-05	4.619819e-02	6.322357e-04	1.257531e-02	1.271412e-02	6.322357e-04	-6.322357e-04	4.758627e-02	-4.481011e-02
105           	2.534251e-02	-8.652471e-20	2.391435e-03	-5.978587e-05	4.685393e-02	6.335628e-04	1.261147e-02	1.273104e-02	6.335628e-04	-6.335628e-04	4.804965e-02	-4.565821e-02
106           	2.526011e-02	-7.743676e-20	1.666922e-03	-4.167304e-05	4.774745e-02	6.315027e-04	1.258838e-02	1.267173e-02	6.315027e-04	-6.315027e-04	4.858091e-02	-4.691399e-02
107           	2.530278e-02	-6.874396e-20	7.140591e-04	-1.785148e-05	4.927362e-02	6.325696e-04	1.263354e-02	1.266924e-02	6.325696e-04	-6.325696e-04	4.963064e-02	-4.891659e-02
108           	2.531309e-02	-5.778714e-20	-4.333283e-04	1.083321e-05	5.107234e-02	6.328272e-04	1.266738e-02	1.264571e-02	6.328272e-04	-6.328272e-04	5.085568e-02	-5.128901e-02
109           	2.529652e-02	-4.570780e-20	-1.551267e-03	3.878167e-05	5.280409e-02	6.324131e-04	1.268704e-02	1.260948e-02	6.324131e-04	-6.324131e-04	5.202846e-02	-5.357972e-02
110           	2.528903e-02	-3.635604e-20	-2.459031e-03	6.147577e-05	5.424932e-02	6.322257e-04	1.270599e-02	1.258304e-02	6.322257e-04	-6.322257e-04	5.301981e-02	-5.547884e-02
111           	2.556609e-02	-3.060478e-20	-3.089854e-03	7.724634e-05	5.586141e-02	6.391523e-04	1.286029e-02	1.270580e-02	6.391523e-04	-6.391523e-04	5.431648e-02	-5.740634e-02
112           	2.619113e-02	-2.984318e-20	-3.321166e-03	8.302916e-05	5.756093e-02	6.547783e-04	1.317860e-02	1.301254e-02	6.547783e-04	-6.547783e-04	5.590035e-02	-5.922152e-02
113           	2.669891e-02	-3.056711e-20	-3.100161e-03	7.750401e-05	5.832110e-02	6.674726e-04	1.342696e-02	1.327195e-02	6.674726e-04	-6.674726e-04	5.677102e-02	-5.987118e-02
114           	2.685163e-02	-3.893058e-20	-2.420568e-03	6.051421e-05	5.766633e-02	6.712908e-04	1.348633e-02	1.336530e-02	6.712908e-04	-6.712908e-04	5.645605e-02	-5.887662e-02
115           	2.670165e-02	-5.056808e-20	-1.320711e-03	3.301778e-05	5.573742e-02	6.675412e-04	1.338384e-02	1.331781e-02	6.675412e-04	-6.675412e-04	5.507707e-02	-5.639778e-02
116           	2.633994e-02	-6.368988e-20	4.964288e-05	-1.241072e-06	5.291100e-02	6.584985e-04	1.316873e-02	1.317121e-02	6.584985e-04	-6.584985e-04	5.293582e-02	-5.288618e-02
117           	2.571368e-02	-7.682518e-20	1.432537e-03	-3.581343e-05	4.946051e-02	6.428420e-04	1.282103e-02	1.289265e-02	6.428420e-04	-6.428420e-04	5.017678e-02	-4.874424e-02
118           	2.492031e-02	-8.148792e-20	2.258351e-03	-5.645879e-05	4.647238e-02	6.230077e-04	1.240369e-02	1.251661e-02	6.230077e-04	-6.230077e-04	4.760156e-02	-4.534321e-02
119           	2.500159e-02	-8.242296e-20	2.709992e-03	-6.774979e-05	4.578218e-02	6.250398e-04	1.243305e-02	1.256855e-02	6.250398e-04	-6.250398e-04	4.713717e-02	-4.442718e-02
120           	2.536696e-02	-8.820269e-20	2.794086e-03	-6.985214e-05	4.632547e-02	6.341741e-04	1.261363e-02	1.275333e-02	6.341741e-04	-6.341741e-04	4.772251e-02	-4.492842e-02
121           	2.545174e-02	-8.717232e-20	2.442502e-03	-6.106254e-05	4.699276e-02	6.362935e-04	1.266481e-02	1.278693e-02	6.362935e-04	-6.362935e-04	4.821401e-02	-4.577151e-02
122           	2.538679e-02	-7.843222e-20	1.754946e-03	-4.387366e-05	4.786458e-02	6.346699e-04	1.264952e-02	1.273727e-02	6.346699e-04	-6.346699e-04	4.874206e-02	-4.698711e-02
123           	2.538902e-02	-6.963052e-20	8.243116e-04	-2.060779e-05	4.927203e-02	6.347254e-04	1.267390e-02	1.271512e-02	6.347254e-04	-6.347254e-04	4.968419e-02	-4.885988e-02
124           	2.541231e-02	-5.914628e-20	-3.052067e-04	7.630167e-06	5.106699e-02	6.353077e-04	1.271378e-02	1.269852e-02	6.353077e-04	-6.353077e-04	5.091439e-02	-5.121959e-02
125           	2.538769e-02	-4.707918e-20	-1.441500e-03	3.603749e-05	5.280696e-02	6.346923e-04	1.272988e-02	1.265781e-02	6.346923e-04	-6.346923e-04	5.208622e-02	-5.352771e-02
126           	2.536352e-02	-3.740198e-20	-2.377206e-03	5.943014e-05	5.426197e-02	6.340880e-04	1.274119e-02	1.262233e-02	6.340880e-04	-6.340880e-04	5.307337e-02	-5.545058e-02
127           	2.559216e-02	-3.175714e-20	-3.047898e-03	7.619744e-05	5.584045e-02	6.398039e-04	1.287228e-02	1.271988e-02	6.398039e-04	-6.398039e-04	5.431650e-02	-5.736440e-02
128           	2.616550e-02	-3.068146e-20	-3.316430e-03	8.291074e-05	5.749318e-02	6.541375e-04	1.316566e-02	1.299984e-02	6.541375e-04	-6.541375e-04	5.583497e-02	-5.915140e-02
129           	2.671199e-02	-3.354038e-20	-3.126933e-03	7.817332e-05	5.838031e-02	6.677997e-04	1.343417e-02	1.327782e-02	6.677997e-04	-6.677997e-04	5.681684e-02	-5.994378e-02
130           	2.698480e-02	-3.962926e-20	-2.460912e-03	6.152281e-05	5.798344e-02	6.746199e-04	1.355392e-02	1.343087e-02	6.746199e-04	-6.746199e-04	5.675298e-02	-5.921389e-02
131           	2.685943e-02	-5.147743e-20	-1.370610e-03	3.426524e-05	5.611844e-02	6.714856e-04	1.346398e-02	1.339545e-02	6.714856e-04	-6.714856e-04	5.543313e-02	-5.680374e-02
132           	2.647549e-02	-6.420869e-20	-1.231212e-05	3.078030e-07	5.327213e-02	6.618873e-04	1.323805e-02	1.323744e-02	6.618873e-04	-6.618873e-04	5.326597e-02	-5.327829e-02
133           	2.580218e-02	-7.670266e-20	1.377739e-03	-3.444348e-05	4.972343e-02	6.450545e-04	1.286665e-02	1.293553e-02	6.450545e-04	-6.450545e-04	5.041230e-02	-4.903456e-02
134           	2.493679e-02	-8.177657e-20	2.261995e-03	-5.654988e-05	4.649731e-02	6.234197e-04	1.241184e-02	1.252494e-02	6.234197e-04	-6.234197e-04	4.762831e-02	-4.536631e-02
135           	2.497345e-02	-8.237912e-20	2.708149e-03	-6.770373e-05	4.572481e-02	6.243361e-04	1.241902e-02	1.255443e-02	6.243361e-04	-6.243361e-04	4.707888e-02	-4.437073e-02
136           	2.541660e-02	-8.719797e-20	2.804822e-03	-7.012056e-05	4.640566e-02	6.354150e-04	1.263818e-02	1.277842e-02	6.354150e-04	-6.354150e-04	4.780807e-02	-4.500325e-02
137           	2.554109e-02	-8.635747e-20	2.467943e-03	-6.169858e-05	4.712677e-02	6.385272e-04	1.270884e-02	1.283224e-02	6.385272e-04	-6.385272e-04	4.836074e-02	-4.589279e-02
138           	2.549600e-02	-7.840191e-20	1.776830e-03	-4.442075e-05	4.804418e-02	6.374000e-04	1.270358e-02	1.279242e-02	6.374000e-04	-6.374000e-04	4.893260e-02	-4.715577e-02
139           	2.548720e-02	-6.953090e-20	8.497074e-04	-2.124268e-05	4.942472e-02	6.371799e-04	1.272235e-02	1.276484e-02	6.371799e-04	-6.371799e-04	4.984957e-02	-4.899987e-02
140           	2.551118e-02	-5.955876e-20	-2.783382e-04	6.958455e-06	5.122147e-02	6.377796e-04	1.276255e-02	1.274863e-02	6.377796e-04	-6.377796e-04	5.108230e-02	-5.136064e-02
141           	2.546698e-02	-4.750660e-20	-1.417892e-03	3.544730e-05	5.292937e-02	6.366745e-04	1.276894e-02	1.269804e-02	6.366745e-04	-6.366745e-04	5.222043e-02	-5.363832e-02
142           	2.542917e-02	-3.772198e-20	-2.356928e-03	5.892321e-05	5.436134e-02	6.357293e-04	1.277351e-02	1.265566e-02	6.357293e-04	-6.357293e-04	5.318288e-02	-5.553981e-02
143           	2.565067e-02	-3.219208e-20	-3.034482e-03	7.586206e-05	5.593364e-02	6.412668e-04	1.290120e-02	1.274947e-02	6.412668e-04	-6.412668e-04	5.441640e-02	-5.745088e-02
144           	2.618118e-02	-3.166027e-20	-3.315938e-03	8.289845e-05	5.752020e-02	6.545296e-04	1.317349e-02	1.300769e-02	6.545296e-04	-6.545296e-04	5.586223e-02	-5.917817e-02
145           	2.671963e-02	-3.395592e-20	-3.152705e-03	7.881762e-05	5.843050e-02	6.679908e-04	1.343863e-02	1.328100e-02	6.679908e-04	-6.679908e-04	5.685415e-02	-6.000685e-02
146           	2.699684e-02	-3.925887e-20	-2.518728e-03	6.296820e-05	5.809197e-02	6.749209e-04	1.356139e-02	1.343545e-02	6.749209e-04	-6.749209e-04	5.683261e-02	-5.935134e-02
147           	2.690953e-02	-5.001203e-20	-1.452195e-03	3.630486e-05	5.634162e-02	6.727382e-04	1.349107e-02	1.341846e-02	6.727382e-04	-6.727382e-04	5.561552e-02	-5.706772e-02
148           	2.652681e-02	-6.317748e-20	-9.804480e-05	2.451120e-06	5.350853e-02	6.631703e-04	1.326586e-02	1.326096e-02	6.631703e-04	-6.631703e-04	5.345951e-02	-5.355756e-02
149           	2.586990e-02	-7.583370e-20	1.303803e-03	-3.259507e-05	4.998092e-02	6.467476e-04	1.290236e-02	1.296755e-02	6.467476e-04	-6.467476e-04	5.063283e-02	-4.932902e-02
150           	2.499222e-02	-8.169423e-20	2.240946e-03	-5.602364e-05	4.665094e-02	6.248054e-04	1.244008e-02	1.255213e-02	6.248054e-04	-6.248054e-04	4.777141e-02	-4.553047e-02
151           	2.495481e-02	-8.223431e-20	2.696372e-03	-6.740929e-05	4.571211e-02	6.238702e-04	1.241000e-02	1.254481e-02	6.238702e-04	-6.238702e-04	4.706029e-02	-4.436392e-02
152           	2.537708e-02	-8.713221e-20	2.833459e-03	-7.083647e-05	4.627153e-02	6.344269e-04	1.261770e-02	1.275937e-02	6.344269e-04	-6.344269e-04	4.768826e-02	-4.485480e-02
153           	2.553172e-02	-8.757943e-20	2.500054e-03	-6.250134e-05	4.705780e-02	6.382930e-04	1.270336e-02	1.282836e-02	6.382930e-04	-6.382930e-04	4.830783e-02	-4.580777e-02
154           	2.553712e-02	-7.997278e-20	1.869843e-03	-4.674608e-05	4.798810e-02	6.384280e-04	1.272181e-02	1.281531e-02	6.384280e-04	-6.384280e-04	4.892303e-02	-4.705318e-02
155           	2.549582e-02	-7.016616e-20	9.076771e-04	-2.269193e-05	4.934850e-02	6.373955e-04	1.272522e-02	1.277060e-02	6.373955e-04	-6.373955e-04	4.980234e-02	-4.889466e-02
156           	2.554543e-02	-5.993095e-20	-2.257643e-04	5.644108e-06	5.120333e-02	6.386357e-04	1.277836e-02	1.276707e-02	6.386357e-04	-6.386357e-04	5.109045e-02	-5.131621e-02
157           	2.550438e-02	-4.809053e-20	-1.378271e-03	3.445678e-05	5.293727e-02	6.376095e-04	1.278665e-02	1.271773e-02	6.376095e-04	-6.376095e-04	5.224813e-02	-5.362641e-02
158           	2.547078e-02	-3.823681e-20	-2.332427e-03	5.831067e-05	5.440240e-02	6.367696e-04	1.279370e-02	1.267708e-02	6.367696e-04	-6.367696e-04	5.323618e-02	-5.556861e-02
159           	2.568135e-02	-3.250476e-20	-3.020283e-03	7.550707e-05	5.596974e-02	6.420339e-04	1.291618e-02	1.276517e-02	6.420339e-04	-6.420339e-04	5.445960e-02	-5.747988e-02
160           	2.622416e-02	-3.144332e-20	-3.308675e-03	8.271687e-05	5.758991e-02	6.556041e-04	1.319480e-02	1.302937e-02	6.556041e-04	-6.556041e-04	5.593558e-02	-5.924425e-02
161           	2.677371e-02	-3.409690e-20	-3.151643e-03	7.879107e-05	5.853112e-02	6.693427e-04	1.346564e-02	1.330806e-02	6.693427e-04	-6.693427e-04	5.695530e-02	-6.010694e-02
162           	2.702100e-02	-3.982852e-20	-2.526744e-03	6.316859e-05	5.815397e-02	6.755249e-04	1.357367e-02	1.344733e-02	6.755249e-04	-6.755249e-04	5.689060e-02	-5.941734e-02
163           	2.693120e-02	-5.000092e-20	-1.472152e-03	3.680380e-05	5.641703e-02	6.732800e-04	1.350240e-02	1.342880e-02	6.732800e-04	-6.732800e-04	5.568095e-02	-5.715310e-02
164           	2.652541e-02	-6.326889e-20	-1.154412e-04	2.886030e-06	5.353103e-02	6.631352e-04	1.326559e-02	1.325982e-02	6.631352e-04	-6.631352e-04	5.347331e-02	-5.358875e-02
165           	2.585811e-02	-7.565254e-20	1.279737e-03	-3.199343e-05	4.999202e-02	6.464528e-04	1.289706e-02	1.296105e-02	6.464528e-04	-6.464528e-04	5.063189e-02	-4.935215e-02
166           	2.496914e-02	-8.160547e-20	2.220391e-03	-5.550977e-05	4.663739e-02	6.242286e-04	1.242906e-02	1.254008e-02	6.242286e-04	-6.242286e-04	4.774758e-02	-4.552719e-02
167           	2.490353e-02	-8.209488e-20	2.680487e-03	-6.701216e-05	4.563663e-02	6.225883e-04	1.238475e-02	1.251878e-02	6.225883e-04	-6.225883e-04	4.697687e-02	-4.429639e-02