# Force coefficients
# dragDir     : (1.000000e+00 0.000000e+00 0.000000e+00)
# sideDir     : (0.000000e+00 0.000000e+00 -1.000000e+00)
# liftDir     : (0.000000e+00 1.000000e+00 0.000000e+00)
# rollAxis    : (1.000000e+00 0.000000e+00 0.000000e+00)
# pitchAxis   : (0.000000e+00 0.000000e+00 -1.000000e+00)
# yawAxis     : (0.000000e+00 1.000000e+00 0.000000e+00)
# magUInf     : 6.000000e-02
# lRef        : 1.000000e-01
# Aref        : 1.000000e-01
# CofR        : (0.000000e+00 0.000000e+00 0.000000e+00)
#
# Time        	Cd            	Cs            	Cl            	CmRoll        	CmPitch       	CmYaw         	Cd(f)         	Cd(r)         	Cs(f)         	Cs(r)         	Cl(f)         	Cl(r)         
1             	3.318720e-03	-5.838231e-21	2.042375e-03	-5.105937e-05	2.319838e-03	8.296801e-05	1.608301e-03	1.710420e-03	8.296801e-05	-8.296801e-05	3.341026e-03	-1.298651e-03
2             	1.830033e-02	1.718347e-20	1.139265e-02	-2.848163e-04	1.245764e-02	4.575083e-04	8.865349e-03	9.434982e-03	4.575083e-04	-4.575083e-04	1.815396e-02	-6.761310e-03
3             	1.988398e-02	1.370100e-20	1.507237e-02	-3.768093e-04	8.847798e-03	4.970995e-04	9.565180e-03	1.031880e-02	4.970995e-04	-4.970995e-04	1.638398e-02	-1.311612e-03
4             	1.825949e-02	-6.751659e-21	1.644739e-02	-4.111847e-04	3.549736e-03	4.564871e-04	8.718558e-03	9.540928e-03	4.564871e-04	-4.564871e-04	1.177343e-02	4.673958e-03
5             	1.743271e-02	-1.881924e-20	1.719378e-02	-4.298445e-04	6.431527e-04	4.358176e-04	8.286508e-03	9.146197e-03	4.358176e-04	-4.358176e-04	9.240043e-03	7.953738e-03
6             	1.756869e-02	-2.503384e-20	1.786833e-02	-4.467082e-04	-3.654440e-04	4.392173e-04	8.337637e-03	9.231053e-03	4.392173e-04	-4.392173e-04	8.568719e-03	9.299607e-03
7             	1.840991e-02	-2.488861e-20	1.871482e-02	-4.678706e-04	-3.236309e-04	4.602476e-04	8.737082e-03	9.672823e-03	4.602476e-04	-4.602476e-04	9.033780e-03	9.681042e-03
8             	1.888605e-02	-2.365140e-20	1.895183e-02	-4.737958e-04	1.659439e-04	4.721511e-04	8.969227e-03	9.916819e-03	4.721511e-04	-4.721511e-04	9.641860e-03	9.309972e-03
9             	2.012536e-02	-2.202199e-20	1.916095e-02	-4.790239e-04	2.103235e-03	5.031340e-04	9.583656e-03	1.054170e-02	5.031340e-04	-5.031340e-04	1.168371e-02	7.477242e-03
10            	2.110467e-02	-1.913179e-20	1.878975e-02	-4.697437e-04	4.609607e-03	5.276168e-04	1.008259e-02	1.102208e-02	5.276168e-04	-5.276168e-04	1.400448e-02	4.785267e-03
11            	2.161213e-02	-1.478521e-20	1.794308e-02	-4.485771e-04	7.096185e-03	5.403033e-04	1.035749e-02	1.125464e-02	5.403033e-04	-5.403033e-04	1.606773e-02	1.875357e-03
12            	2.171671e-02	-1.470676e-20	1.669377e-02	-4.173443e-04	9.583628e-03	5.429178e-04	1.044101e-02	1.127570e-02	5.429178e-04	-5.429178e-04	1.793051e-02	-1.236743e-03
13            	2.141415e-02	-1.306715e-20	1.524625e-02	-3.811563e-04	1.170899e-02	5.353538e-04	1.032592e-02	1.108823e-02	5.353538e-04	-5.353538e-04	1.933211e-02	-4.085863e-03
14            	2.072985e-02	-1.152894e-20	1.371255e-02	-3.428137e-04	1.333295e-02	5.182463e-04	1.002211e-02	1.070774e-02	5.182463e-04	-5.182463e-04	2.018922e-02	-6.476671e-03
15            	1.996381e-02	-9.349033e-21	1.239834e-02	-3.099585e-04	1.440757e-02	4.990953e-04	9.671947e-03	1.029186e-02	4.990953e-04	-4.990953e-04	2.060673e-02	-8.208396e-03
16            	1.928601e-02	-7.914629e-21	1.133988e-02	-2.834969e-04	1.518052e-02	4.821503e-04	9.359508e-03	9.926502e-03	4.821503e-04	-4.821503e-04	2.085046e-02	-9.510587e-03
17            	1.882972e-02	-6.778833e-21	1.063410e-02	-2.658526e-04	1.567149e-02	4.707430e-04	9.149008e-03	9.680713e-03	4.707430e-04	-4.707430e-04	2.098854e-02	-1.035444e-02
18            	1.831790e-02	-5.709653e-21	1.030385e-02	-2.575962e-04	1.537721e-02	4.579476e-04	8.901355e-03	9.416548e-03	4.579476e-04	-4.579476e-04	2.052913e-02	-1.022528e-02
19            	1.784903e-02	-5.128507e-21	1.050041e-02	-2.625102e-04	1.419782e-02	4.462259e-04	8.662007e-03	9.187027e-03	4.462259e-04	-4.462259e-04	1.944802e-02	-8.947612e-03
20            	1.744026e-02	-5.272526e-21	1.116399e-02	-2.790996e-04	1.226624e-02	4.360065e-04	8.441031e-03	8.999230e-03	4.360065e-04	-4.360065e-04	1.784823e-02	-6.684248e-03
21            	1.718116e-02	-6.061706e-21	1.223470e-02	-3.058675e-04	9.853643e-03	4.295291e-04	8.284715e-03	8.896450e-03	4.295291e-04	-4.295291e-04	1.597099e-02	-3.736293e-03
22            	1.710965e-02	-8.103552e-21	1.356331e-02	-3.390827e-04	7.298068e-03	4.277413e-04	8.215744e-03	8.893909e-03	4.277413e-04	-4.277413e-04	1.407972e-02	-5.164137e-04
23            	1.727488e-02	-1.163232e-20	1.502276e-02	-3.755689e-04	4.890661e-03	4.318720e-04	8.261872e-03	9.013009e-03	4.318720e-04	-4.318720e-04	1.240204e-02	2.620717e-03
24            	1.776637e-02	-1.504167e-20	1.633199e-02	-4.082998e-04	3.285862e-03	4.441593e-04	8.474885e-03	9.291485e-03	4.441593e-04	-4.441593e-04	1.145186e-02	4.880134e-03
25            	1.870920e-02	-1.748224e-20	1.729187e-02	-4.322967e-04	3.180977e-03	4.677300e-04	8.922304e-03	9.786897e-03	4.677300e-04	-4.677300e-04	1.182691e-02	5.464957e-03
26            	1.986757e-02	-1.873091e-20	1.773561e-02	-4.433902e-04	4.393363e-03	4.966893e-04	9.490395e-03	1.037718e-02	4.966893e-04	-4.966893e-04	1.326117e-02	4.474441e-03
27            	2.086599e-02	-1.880147e-20	1.759805e-02	-4.399513e-04	6.361924e-03	5.216498e-04	9.993044e-03	1.087295e-02	5.216498e-04	-5.216498e-04	1.516095e-02	2.437102e-03
28            	2.145504e-02	-1.715994e-20	1.701230e-02	-4.253075e-04	8.417277e-03	5.363760e-04	1.030221e-02	1.115283e-02	5.363760e-04	-5.363760e-04	1.692343e-02	8.887356e-05
29            	2.164492e-02	-1.429576e-20	1.608391e-02	-4.020978e-04	1.041279e-02	5.411231e-04	1.042036e-02	1.122456e-02	5.411231e-04	-5.411231e-04	1.845475e-02	-2.370837e-03
30            	2.150796e-02	-1.177620e-20	1.488591e-02	-3.721477e-04	1.237771e-02	5.376989e-04	1.038183e-02	1.112613e-02	5.376989e-04	-5.376989e-04	1.982066e-02	-4.934753e-03
31            	2.130746e-02	-1.024355e-20	1.367133e-02	-3.417832e-04	1.429253e-02	5.326864e-04	1.031195e-02	1.099551e-02	5.326864e-04	-5.326864e-04	2.112819e-02	-7.456864e-03
32            	2.095432e-02	-8.033202e-21	1.260816e-02	-3.152040e-04	1.565560e-02	5.238581e-04	1.016196e-02	1.079237e-02	5.238581e-04	-5.238581e-04	2.195968e-02	-9.351523e-03
33            	2.057046e-02	-6.168848e-21	1.175278e-02	-2.938195e-04	1.656579e-02	5.142615e-04	9.991410e-03	1.057905e-02	5.142615e-04	-5.142615e-04	2.244218e-02	-1.068940e-02
34            	2.022372e-02	-4.611750e-21	1.118614e-02	-2.796534e-04	1.703296e-02	5.055930e-04	9.832207e-03	1.039151e-02	5.055930e-04	-5.055930e-04	2.262602e-02	-1.143989e-02
35            	1.987678e-02	-3.877393e-21	1.103081e-02	-2.757702e-04	1.675647e-02	4.969196e-04	9.662621e-03	1.021416e-02	4.969196e-04	-4.969196e-04	2.227187e-02	-1.124106e-02
36            	1.941096e-02	-4.232589e-21	1.117283e-02	-2.793207e-04	1.571290e-02	4.852741e-04	9.426162e-03	9.984803e-03	4.852741e-04	-4.852741e-04	2.129931e-02	-1.012648e-02
37            	1.877301e-02	-5.313998e-21	1.162918e-02	-2.907295e-04	1.378294e-02	4.693253e-04	9.095776e-03	9.677235e-03	4.693253e-04	-4.693253e-04	1.959753e-02	-7.968351e-03
38            	1.819251e-02	-6.639496e-21	1.249982e-02	-3.124955e-04	1.118965e-02	4.548127e-04	8.783758e-03	9.408749e-03	4.548127e-04	-4.548127e-04	1.743956e-02	-4.939742e-03
39            	1.780036e-02	-7.915073e-21	1.369485e-02	-3.423712e-04	8.329299e-03	4.450090e-04	8.557809e-03	9.242552e-03	4.450090e-04	-4.450090e-04	1.517672e-02	-1.481875e-03
40            	1.766705e-02	-1.122549e-20	1.509995e-02	-3.774986e-04	5.516069e-03	4.416763e-04	8.456027e-03	9.211024e-03	4.416763e-04	-4.416763e-04	1.306604e-02	2.033903e-03
41            	1.794049e-02	-1.559495e-20	1.652566e-02	-4.131415e-04	3.298056e-03	4.485123e-04	8.557105e-03	9.383388e-03	4.485123e-04	-4.485123e-04	1.156089e-02	4.964775e-03
42            	1.873969e-02	-1.805339e-20	1.769096e-02	-4.422739e-04	2.570468e-03	4.684923e-04	8.927573e-03	9.812121e-03	4.684923e-04	-4.684923e-04	1.141595e-02	6.275010e-03
43            	2.005028e-02	-1.945640e-20	1.845142e-02	-4.612856e-04	3.483354e-03	5.012570e-04	9.563854e-03	1.048642e-02	5.012570e-04	-5.012570e-04	1.270907e-02	5.742358e-03
44            	2.151753e-02	-1.964435e-20	1.871776e-02	-4.679439e-04	5.549080e-03	5.379382e-04	1.029082e-02	1.122671e-02	5.379382e-04	-5.379382e-04	1.490796e-02	3.809798e-03
45            	2.258273e-02	-1.849231e-20	1.837984e-02	-4.594960e-04	7.964037e-03	5.645684e-04	1.083187e-02	1.175086e-02	5.645684e-04	-5.645684e-04	1.715396e-02	1.225883e-03
46            	2.318067e-02	-1.645706e-20	1.760533e-02	-4.401331e-04	1.034492e-02	5.795166e-04	1.115020e-02	1.203047e-02	5.795166e-04	-5.795166e-04	1.914758e-02	-1.542258e-03
47            	2.324131e-02	-1.321805e-20	1.651642e-02	-4.129104e-04	1.238896e-02	5.810329e-04	1.120775e-02	1.203357e-02	5.810329e-04	-5.810329e-04	2.064717e-02	-4.130750e-03
48            	2.296727e-02	-1.248224e-20	1.517045e-02	-3.792613e-04	1.443084e-02	5.741817e-04	1.110437e-02	1.186289e-02	5.741817e-04	-5.741817e-04	2.201607e-02	-6.845613e-03
49            	2.274513e-02	-9.825170e-21	1.391911e-02	-3.479777e-04	1.636217e-02	5.686284e-04	1.102459e-02	1.172055e-02	5.686284e-04	-5.686284e-04	2.332172e-02	-9.402613e-03
50            	2.250531e-02	-7.729170e-21	1.284330e-02	-3.210824e-04	1.794268e-02	5.626327e-04	1.093157e-02	1.157374e-02	5.626327e-04	-5.626327e-04	2.436433e-02	-1.152103e-02
51            	2.213419e-02	-5.655463e-21	1.195054e-02	-2.987634e-04	1.896939e-02	5.533548e-04	1.076833e-02	1.136586e-02	5.533548e-04	-5.533548e-04	2.494466e-02	-1.299412e-02
52            	2.165871e-02	-3.830845e-21	1.136516e-02	-2.841290e-04	1.926382e-02	5.414676e-04	1.054522e-02	1.111348e-02	5.414676e-04	-5.414676e-04	2.494640e-02	-1.358124e-02
53            	2.105073e-02	-2.867740e-21	1.110236e-02	-2.775589e-04	1.872685e-02	5.262683e-04	1.024781e-02	1.080293e-02	5.262683e-04	-5.262683e-04	2.427803e-02	-1.317567e-02
54            	2.015651e-02	-2.953639e-21	1.125851e-02	-2.814629e-04	1.691586e-02	5.039128e-04	9.796793e-03	1.035972e-02	5.039128e-04	-5.039128e-04	2.254511e-02	-1.128660e-02
55            	1.936047e-02	-4.562062e-21	1.191846e-02	-2.979616e-04	1.433602e-02	4.840117e-04	9.382273e-03	9.978196e-03	4.840117e-04	-4.840117e-04	2.029525e-02	-8.376791e-03
56            	1.865877e-02	-7.014849e-21	1.300965e-02	-3.252413e-04	1.112799e-02	4.664694e-04	9.004146e-03	9.654629e-03	4.664694e-04	-4.664694e-04	1.763282e-02	-4.623169e-03
57            	1.825632e-02	-9.162401e-21	1.447423e-02	-3.618558e-04	7.761226e-03	4.564079e-04	8.766302e-03	9.490014e-03	4.564079e-04	-4.564079e-04	1.499834e-02	-5.241103e-04
58            	1.818488e-02	-1.296120e-20	1.604626e-02	-4.011566e-04	4.719405e-03	4.546220e-04	8.691282e-03	9.493596e-03	4.546220e-04	-4.546220e-04	1.274254e-02	3.303727e-03
59            	1.860522e-02	-1.733088e-20	1.753308e-02	-4.383269e-04	2.650240e-03	4.651304e-04	8.864281e-03	9.740934e-03	4.651304e-04	-4.651304e-04	1.141678e-02	6.116299e-03
60            	1.966194e-02	-1.986166e-20	1.864088e-02	-4.660220e-04	2.470724e-03	4.915485e-04	9.364948e-03	1.029699e-02	4.915485e-04	-4.915485e-04	1.179116e-02	6.849717e-03
61            	2.117494e-02	-2.070155e-20	1.927459e-02	-4.818648e-04	3.947978e-03	5.293735e-04	1.010560e-02	1.106933e-02	5.293735e-04	-5.293735e-04	1.358527e-02	5.689317e-03
62            	2.266748e-02	-2.026927e-20	1.930658e-02	-4.826646e-04	6.441247e-03	5.666869e-04	1.085107e-02	1.181640e-02	5.666869e-04	-5.666869e-04	1.609454e-02	3.212045e-03
63            	2.376241e-02	-1.885904e-20	1.879870e-02	-4.699674e-04	9.204414e-03	5.940601e-04	1.141124e-02	1.235117e-02	5.940601e-04	-5.940601e-04	1.860376e-02	1.949353e-04
64            	2.426413e-02	-1.602128e-20	1.778733e-02	-4.446834e-04	1.184359e-02	6.066033e-04	1.168738e-02	1.257675e-02	6.066033e-04	-6.066033e-04	2.073725e-02	-2.949919e-03
65            	2.421418e-02	-1.277544e-20	1.645026e-02	-4.112565e-04	1.419030e-02	6.053545e-04	1.169583e-02	1.251835e-02	6.053545e-04	-6.053545e-04	2.241543e-02	-5.965171e-03
66            	2.379239e-02	-1.152696e-20	1.493244e-02	-3.733110e-04	1.632620e-02	5.948099e-04	1.152289e-02	1.226951e-02	5.948099e-04	-5.948099e-04	2.379242e-02	-8.859984e-03
67            	2.355773e-02	-9.146618e-21	1.371059e-02	-3.427646e-04	1.818839e-02	5.889433e-04	1.143610e-02	1.212163e-02	5.889433e-04	-5.889433e-04	2.504368e-02	-1.133310e-02
68            	2.316551e-02	-6.895138e-21	1.261169e-02	-3.152923e-04	1.954661e-02	5.791378e-04	1.126746e-02	1.189805e-02	5.791378e-04	-5.791378e-04	2.585245e-02	-1.324076e-02
69            	2.261806e-02	-4.762686e-21	1.170922e-02	-2.927305e-04	2.027731e-02	5.654515e-04	1.101630e-02	1.160176e-02	5.654515e-04	-5.654515e-04	2.613192e-02	-1.442270e-02
70            	2.190568e-02	-3.037429e-21	1.115227e-02	-2.788067e-04	2.011338e-02	5.476420e-04	1.067403e-02	1.123165e-02	5.476420e-04	-5.476420e-04	2.568951e-02	-1.453724e-02
71            	2.110644e-02	-2.480679e-21	1.101414e-02	-2.753535e-04	1.901225e-02	5.276610e-04	1.027787e-02	1.082857e-02	5.276610e-04	-5.276610e-04	2.451932e-02	-1.350518e-02
72            	2.017604e-02	-3.324376e-21	1.132820e-02	-2.832050e-04	1.683667e-02	5.044011e-04	9.804816e-03	1.037123e-02	5.044011e-04	-5.044011e-04	2.250077e-02	-1.117257e-02
73            	1.932672e-02	-5.351524e-21	1.218891e-02	-3.047228e-04	1.379915e-02	4.831679e-04	9.358635e-03	9.968081e-03	4.831679e-04	-4.831679e-04	1.989360e-02	-7.704694e-03
74            	1.864302e-02	-7.997563e-21	1.342387e-02	-3.355968e-04	1.036142e-02	4.660755e-04	8.985914e-03	9.657108e-03	4.660755e-04	-4.660755e-04	1.707335e-02	-3.649483e-03
75            	1.834356e-02	-9.510144e-21	1.505018e-02	-3.762545e-04	6.872197e-03	4.585890e-04	8.795526e-03	9.548035e-03	4.585890e-04	-4.585890e-04	1.439729e-02	6.528926e-04
76            	1.846621e-02	-1.497563e-20	1.672535e-02	-4.181338e-04	3.937318e-03	4.616552e-04	8.814971e-03	9.651239e-03	4.616552e-04	-4.616552e-04	1.229999e-02	4.425358e-03
77            	1.914499e-02	-1.829214e-20	1.814583e-02	-4.536457e-04	2.479231e-03	4.786248e-04	9.118850e-03	1.002614e-02	4.786248e-04	-4.786248e-04	1.155214e-02	6.593683e-03
78            	2.039192e-02	-2.038329e-20	1.905977e-02	-4.764943e-04	2.979610e-03	5.097980e-04	9.719467e-03	1.067246e-02	5.097980e-04	-5.097980e-04	1.250950e-02	6.550276e-03
79            	2.207089e-02	-2.082671e-20	1.956446e-02	-4.891114e-04	4.963894e-03	5.517724e-04	1.054634e-02	1.152456e-02	5.517724e-04	-5.517724e-04	1.474612e-02	4.818334e-03
80            	2.343494e-02	-1.984726e-20	1.936795e-02	-4.841987e-04	7.636056e-03	5.858734e-04	1.123327e-02	1.220167e-02	5.858734e-04	-5.858734e-04	1.732003e-02	2.047917e-03
81            	2.429159e-02	-1.795945e-20	1.860757e-02	-4.651891e-04	1.042887e-02	6.072899e-04	1.168061e-02	1.261099e-02	6.072899e-04	-6.072899e-04	1.973266e-02	-1.125090e-03
82            	2.453421e-02	-1.479876e-20	1.746251e-02	-4.365628e-04	1.288965e-02	6.133551e-04	1.183054e-02	1.270367e-02	6.133551e-04	-6.133551e-04	2.162091e-02	-4.158398e-03
83            	2.430872e-02	-1.311324e-20	1.600648e-02	-4.001620e-04	1.522446e-02	6.077179e-04	1.175420e-02	1.255452e-02	6.077179e-04	-6.077179e-04	2.322771e-02	-7.221224e-03
84            	2.395588e-02	-1.071988e-20	1.453456e-02	-3.633640e-04	1.734755e-02	5.988971e-04	1.161458e-02	1.234131e-02	5.988971e-04	-5.988971e-04	2.461483e-02	-1.008027e-02
85            	2.359217e-02	-8.436140e-21	1.329827e-02	-3.324568e-04	1.901895e-02	5.898043e-04	1.146363e-02	1.212854e-02	5.898043e-04	-5.898043e-04	2.566809e-02	-1.236982e-02
86            	2.305980e-02	-6.226421e-21	1.222636e-02	-3.056591e-04	2.009043e-02	5.764951e-04	1.122424e-02	1.183556e-02	5.764951e-04	-5.764951e-04	2.620362e-02	-1.397725e-02
87            	2.247726e-02	-4.236298e-21	1.143863e-02	-2.859657e-04	2.055354e-02	5.619315e-04	1.095267e-02	1.152460e-02	5.619315e-04	-5.619315e-04	2.627286e-02	-1.483423e-02
88            	2.172509e-02	-2.927973e-21	1.097477e-02	-2.743693e-04	2.013903e-02	5.431273e-04	1.058818e-02	1.113692e-02	5.431273e-04	-5.431273e-04	2.562641e-02	-1.465164e-02
89            	2.082617e-02	-2.642726e-21	1.095779e-02	-2.739448e-04	1.864014e-02	5.206544e-04	1.013914e-02	1.068703e-02	5.206544e-04	-5.206544e-04	2.411904e-02	-1.316125e-02
90            	1.993301e-02	-3.812007e-21	1.147871e-02	-2.869677e-04	1.615394e-02	4.983254e-04	9.679540e-03	1.025347e-02	4.983254e-04	-4.983254e-04	2.189329e-02	-1.041459e-02
91            	1.920881e-02	-6.076054e-21	1.256355e-02	-3.140889e-04	1.292999e-02	4.802203e-04	9.290318e-03	9.918496e-03	4.802203e-04	-4.802203e-04	1.921177e-02	-6.648213e-03
92            	1.863600e-02	-8.693352e-21	1.400721e-02	-3.501803e-04	9.306578e-03	4.658999e-04	8.967819e-03	9.668179e-03	4.658999e-04	-4.658999e-04	1.631018e-02	-2.302971e-03
93            	1.848024e-02	-1.092447e-20	1.572416e-02	-3.931039e-04	5.880897e-03	4.620060e-04	8.847016e-03	9.633224e-03	4.620060e-04	-4.620060e-04	1.374298e-02	1.981180e-03
94            	1.867548e-02	-1.674240e-20	1.732109e-02	-4.330272e-04	3.170548e-03	4.668871e-04	8.904714e-03	9.770768e-03	4.668871e-04	-4.668871e-04	1.183109e-02	5.489996e-03
95            	1.953606e-02	-1.951688e-20	1.855533e-02	-4.638832e-04	2.405869e-03	4.884015e-04	9.304146e-03	1.023191e-02	4.884015e-04	-4.884015e-04	1.168353e-02	6.871795e-03
96            	2.095595e-02	-2.090735e-20	1.932476e-02	-4.831190e-04	3.467893e-03	5.238988e-04	9.994857e-03	1.096110e-02	5.238988e-04	-5.238988e-04	1.313027e-02	6.194486e-03
97            	2.257905e-02	-2.081706e-20	1.959727e-02	-4.899316e-04	5.764179e-03	5.644762e-04	1.079959e-02	1.177946e-02	5.644762e-04	-5.644762e-04	1.556281e-02	4.034453e-03
98            	2.377434e-02	-1.949675e-20	1.921669e-02	-4.804174e-04	8.469208e-03	5.943584e-04	1.140675e-02	1.236759e-02	5.943584e-04	-5.943584e-04	1.807755e-02	1.139139e-03
99            	2.440586e-02	-1.711974e-20	1.831458e-02	-4.578646e-04	1.113542e-02	6.101464e-04	1.174506e-02	1.266079e-02	6.101464e-04	-6.101464e-04	2.029271e-02	-1.978131e-03
100           	2.448177e-02	-1.342425e-20	1.707037e-02	-4.267593e-04	1.351002e-02	6.120442e-04	1.181412e-02	1.266764e-02	6.120442e-04	-6.120442e-04	2.204520e-02	-4.974832e-03
101           	2.416263e-02	-1.310252e-20	1.551626e-02	-3.879064e-04	1.588750e-02	6.040657e-04	1.169341e-02	1.246922e-02	6.040657e-04	-6.040657e-04	2.364563e-02	-8.129369e-03
102           	2.382846e-02	-9.983687e-21	1.413938e-02	-3.534846e-04	1.785397e-02	5.957115e-04	1.156074e-02	1.226771e-02	5.957115e-04	-5.957115e-04	2.492366e-02	-1.078428e-02
103           	2.342416e-02	-7.678583e-21	1.294130e-02	-3.235326e-04	1.938105e-02	5.856040e-04	1.138855e-02	1.203561e-02	5.856040e-04	-5.856040e-04	2.585170e-02	-1.291040e-02
104           	2.288797e-02	-5.525927e-21	1.194802e-02	-2.987006e-04	2.030688e-02	5.721993e-04	1.114529e-02	1.174269e-02	5.721993e-04	-5.721993e-04	2.628089e-02	-1.433287e-02
105           	2.228699e-02	-3.681031e-21	1.130413e-02	-2.826032e-04	2.049344e-02	5.571746e-04	1.086089e-02	1.142610e-02	5.571746e-04	-5.571746e-04	2.614550e-02	-1.484138e-02
106           	2.152828e-02	-2.826273e-21	1.107728e-02	-2.769319e-04	1.963639e-02	5.382070e-04	1.048721e-02	1.104107e-02	5.382070e-04	-5.382070e-04	2.517502e-02	-1.409775e-02
107           	2.067091e-02	-3.304372e-21	1.128894e-02	-2.822234e-04	1.778593e-02	5.167727e-04	1.005323e-02	1.061768e-02	5.167727e-04	-5.167727e-04	2.343040e-02	-1.214146e-02
108           	1.978094e-02	-4.989338e-21	1.198029e-02	-2.995072e-04	1.498967e-02	4.945235e-04	9.590962e-03	1.018998e-02	4.945235e-04	-4.945235e-04	2.097982e-02	-8.999529e-03
109           	1.898491e-02	-7.343767e-21	1.308887e-02	-3.272218e-04	1.158778e-02	4.746228e-04	9.165234e-03	9.819678e-03	4.746228e-04	-4.746228e-04	1.813222e-02	-5.043347e-03
110           	1.851864e-02	-9.314456e-21	1.461550e-02	-3.653875e-04	7.991563e-03	4.629660e-04	8.893933e-03	9.624708e-03	4.629660e-04	-4.629660e-04	1.529931e-02	-6.838118e-04
111           	1.843050e-02	-1.290351e-20	1.627796e-02	-4.069489e-04	4.755980e-03	4.607624e-04	8.808300e-03	9.622197e-03	4.607624e-04	-4.607624e-04	1.289496e-02	3.382998e-03
112           	1.883123e-02	-1.740711e-20	1.776785e-02	-4.441963e-04	2.623259e-03	4.707807e-04	8.971418e-03	9.859811e-03	4.707807e-04	-4.707807e-04	1.150719e-02	6.260668e-03
113           	1.993449e-02	-2.017980e-20	1.887676e-02	-4.719189e-04	2.523142e-03	4.983622e-04	9.495326e-03	1.043916e-02	4.983622e-04	-4.983622e-04	1.196152e-02	6.915236e-03
114           	2.149975e-02	-2.105018e-20	1.950779e-02	-4.876948e-04	4.090372e-03	5.374937e-04	1.026218e-02	1.123757e-02	5.374937e-04	-5.374937e-04	1.384427e-02	5.663523e-03
115           	2.300414e-02	-2.062575e-20	1.952977e-02	-4.882442e-04	6.619079e-03	5.751035e-04	1.101382e-02	1.199031e-02	5.751035e-04	-5.751035e-04	1.638396e-02	3.145804e-03
116           	2.408512e-02	-1.912436e-20	1.899641e-02	-4.749101e-04	9.404258e-03	6.021280e-04	1.156765e-02	1.251747e-02	6.021280e-04	-6.021280e-04	1.890246e-02	9.394515e-05
117           	2.451410e-02	-1.607601e-20	1.795645e-02	-4.489113e-04	1.197379e-02	6.128524e-04	1.180814e-02	1.270596e-02	6.128524e-04	-6.128524e-04	2.095202e-02	-2.995569e-03
118           	2.443796e-02	-1.293779e-20	1.659821e-02	-4.149554e-04	1.431906e-02	6.109490e-04	1.180403e-02	1.263394e-02	6.109490e-04	-6.109490e-04	2.261817e-02	-6.019955e-03
119           	2.401813e-02	-1.169039e-20	1.503138e-02	-3.757845e-04	1.653847e-02	6.004532e-04	1.163328e-02	1.238485e-02	6.004532e-04	-6.004532e-04	2.405416e-02	-9.022781e-03
120           	2.374034e-02	-9.120551e-21	1.375574e-02	-3.438935e-04	1.843118e-02	5.935084e-04	1.152628e-02	1.221406e-02	5.935084e-04	-5.935084e-04	2.530905e-02	-1.155331e-02
121           	2.332459e-02	-6.802273e-21	1.262019e-02	-3.155047e-04	1.981599e-02	5.831148e-04	1.134679e-02	1.197780e-02	5.831148e-04	-5.831148e-04	2.612608e-02	-1.350590e-02
122           	2.278152e-02	-4.629939e-21	1.169550e-02	-2.923875e-04	2.059355e-02	5.695379e-04	1.109837e-02	1.168315e-02	5.695379e-04	-5.695379e-04	2.644130e-02	-1.474580e-02
123           	2.209622e-02	-2.883240e-21	1.111926e-02	-2.779816e-04	2.051211e-02	5.524055e-04	1.077013e-02	1.132609e-02	5.524055e-04	-5.524055e-04	2.607174e-02	-1.495248e-02
124           	2.132847e-02	-2.367349e-21	1.096860e-02	-2.742150e-04	1.949068e-02	5.332116e-04	1.039002e-02	1.093845e-02	5.332116e-04	-5.332116e-04	2.497498e-02	-1.400638e-02
125           	2.040780e-02	-3.169003e-21	1.126875e-02	-2.817188e-04	1.736224e-02	5.101949e-04	9.922179e-03	1.048562e-02	5.101949e-04	-5.101949e-04	2.299662e-02	-1.172787e-02
126           	1.955197e-02	-5.120619e-21	1.211106e-02	-3.027766e-04	1.434936e-02	4.887994e-04	9.473211e-03	1.007876e-02	4.887994e-04	-4.887994e-04	2.040489e-02	-8.293829e-03
127           	1.884511e-02	-7.718501e-21	1.334899e-02	-3.337246e-04	1.086851e-02	4.711278e-04	9.088831e-03	9.756280e-03	4.711278e-04	-4.711278e-04	1.754300e-02	-4.194015e-03
128           	1.850885e-02	-9.438365e-21	1.498631e-02	-3.746578e-04	7.297030e-03	4.627212e-04	8.879766e-03	9.629082e-03	4.627212e-04	-4.627212e-04	1.479019e-02	1.961269e-04
129           	1.857200e-02	-1.432549e-20	1.668532e-02	-4.171329e-04	4.231140e-03	4.642999e-04	8.868865e-03	9.703131e-03	4.642999e-04	-4.642999e-04	1.257380e-02	4.111518e-03
130           	1.912793e-02	-1.810182e-20	1.813237e-02	-4.533092e-04	2.480311e-03	4.781982e-04	9.110655e-03	1.001727e-02	4.781982e-04	-4.781982e-04	1.154650e-02	6.585873e-03
131           	2.034014e-02	-2.057441e-20	1.909460e-02	-4.773650e-04	2.829065e-03	5.085036e-04	9.692707e-03	1.064744e-02	5.085036e-04	-5.085036e-04	1.237637e-02	6.718235e-03
132           	2.204455e-02	-2.107265e-20	1.964185e-02	-4.910463e-04	4.793456e-03	5.511137e-04	1.053123e-02	1.151332e-02	5.511137e-04	-5.511137e-04	1.461438e-02	5.027470e-03
133           	2.341174e-02	-2.016309e-20	1.947759e-02	-4.869398e-04	7.411333e-03	5.852934e-04	1.121893e-02	1.219281e-02	5.852934e-04	-5.852934e-04	1.715013e-02	2.327463e-03
134           	2.430805e-02	-1.834951e-20	1.875213e-02	-4.688033e-04	1.021909e-02	6.077012e-04	1.168522e-02	1.262283e-02	6.077012e-04	-6.077012e-04	1.959515e-02	-8.430218e-04
135           	2.456981e-02	-1.507278e-20	1.761605e-02	-4.404013e-04	1.268526e-02	6.142452e-04	1.184450e-02	1.272531e-02	6.142452e-04	-6.142452e-04	2.149329e-02	-3.877237e-03
136           	2.436691e-02	-1.301452e-20	1.620406e-02	-4.051014e-04	1.495133e-02	6.091727e-04	1.177835e-02	1.258856e-02	6.091727e-04	-6.091727e-04	2.305336e-02	-6.849302e-03
137           	2.399251e-02	-1.098013e-20	1.469483e-02	-3.673707e-04	1.711007e-02	5.998127e-04	1.162888e-02	1.236363e-02	5.998127e-04	-5.998127e-04	2.445748e-02	-9.762656e-03
138           	2.365524e-02	-8.614435e-21	1.342805e-02	-3.357013e-04	1.888038e-02	5.913811e-04	1.149192e-02	1.216332e-02	5.913811e-04	-5.913811e-04	2.559440e-02	-1.216635e-02
139           	2.317226e-02	-6.336795e-21	1.234401e-02	-3.086002e-04	2.006139e-02	5.793065e-04	1.127753e-02	1.189473e-02	5.793065e-04	-5.793065e-04	2.623340e-02	-1.388939e-02
140           	2.262419e-02	-4.302667e-21	1.151029e-02	-2.877573e-04	2.066891e-02	5.656046e-04	1.102434e-02	1.159985e-02	5.656046e-04	-5.656046e-04	2.642405e-02	-1.491376e-02
141           	2.191082e-02	-2.913451e-21	1.099158e-02	-2.747895e-04	2.041984e-02	5.477706e-04	1.068062e-02	1.123020e-02	5.477706e-04	-5.477706e-04	2.591563e-02	-1.492405e-02
142           	2.101629e-02	-2.544474e-21	1.094713e-02	-2.736782e-04	1.899094e-02	5.254073e-04	1.023447e-02	1.078182e-02	5.254073e-04	-5.254073e-04	2.446450e-02	-1.351737e-02
143           	2.017613e-02	-3.615362e-21	1.141336e-02	-2.853339e-04	1.670044e-02	5.044032e-04	9.802731e-03	1.037340e-02	5.044032e-04	-5.044032e-04	2.240712e-02	-1.099376e-02
144           	1.940970e-02	-5.768949e-21	1.241069e-02	-3.102672e-04	1.356166e-02	4.852424e-04	9.394580e-03	1.001511e-02	4.852424e-04	-4.852424e-04	1.976700e-02	-7.356313e-03
145           	1.875007e-02	-8.387014e-21	1.371295e-02	-3.428238e-04	1.004285e-02	4.687517e-04	9.032210e-03	9.717858e-03	4.687517e-04	-4.687517e-04	1.689933e-02	-3.186379e-03
146           	1.844584e-02	-9.996429e-21	1.536883e-02	-3.842208e-04	6.483909e-03	4.611460e-04	8.838699e-03	9.607141e-03	4.611460e-04	-4.611460e-04	1.416832e-02	1.200506e-03
147           	1.857480e-02	-1.597571e-20	1.702004e-02	-4.255009e-04	3.577579e-03	4.643700e-04	8.861900e-03	9.712902e-03	4.643700e-04	-4.643700e-04	1.208760e-02	4.932440e-03
148           	1.929873e-02	-1.886886e-20	1.836077e-02	-4.590193e-04	2.353276e-03	4.824683e-04	9.190346e-03	1.010838e-02	4.824683e-04	-4.824683e-04	1.153366e-02	6.827110e-03
149           	2.067968e-02	-2.070772e-20	1.921770e-02	-4.804426e-04	3.190655e-03	5.169920e-04	9.859397e-03	1.082028e-02	5.169920e-04	-5.169920e-04	1.279951e-02	6.418198e-03
150           	2.237636e-02	-2.094438e-20	1.963962e-02	-4.909906e-04	5.354043e-03	5.594089e-04	1.069719e-02	1.167917e-02	5.594089e-04	-5.594089e-04	1.517385e-02	4.465768e-03
151           	2.365488e-02	-1.983378e-20	1.937591e-02	-4.843978e-04	7.994618e-03	5.913720e-04	1.134304e-02	1.231184e-02	5.913720e-04	-5.913720e-04	1.768257e-02	1.693337e-03
152           	2.442669e-02	-1.772903e-20	1.855228e-02	-4.638069e-04	1.076079e-02	6.106672e-04	1.174954e-02	1.267715e-02	6.106672e-04	-6.106672e-04	2.003693e-02	-1.484655e-03
153           	2.456821e-02	-1.421592e-20	1.734291e-02	-4.335728e-04	1.316845e-02	6.142053e-04	1.185053e-02	1.271768e-02	6.142053e-04	-6.142053e-04	2.183990e-02	-4.496989e-03
154           	2.427904e-02	-1.330330e-20	1.583677e-02	-3.959192e-04	1.549383e-02	6.069761e-04	1.174360e-02	1.253544e-02	6.069761e-04	-6.069761e-04	2.341221e-02	-7.575445e-03
155           	2.391157e-02	-1.042172e-20	1.437294e-02	-3.593235e-04	1.756416e-02	5.977893e-04	1.159646e-02	1.231511e-02	5.977893e-04	-5.977893e-04	2.475063e-02	-1.037768e-02
156           	2.353039e-02	-8.045083e-21	1.313162e-02	-3.282905e-04	1.921507e-02	5.882597e-04	1.143690e-02	1.209348e-02	5.882597e-04	-5.882597e-04	2.578088e-02	-1.264926e-02
157           	2.301380e-02	-5.825225e-21	1.207749e-02	-3.019372e-04	2.028289e-02	5.753449e-04	1.120496e-02	1.180883e-02	5.753449e-04	-5.753449e-04	2.632163e-02	-1.424414e-02
158           	2.244393e-02	-3.843307e-21	1.131221e-02	-2.828053e-04	2.072847e-02	5.610984e-04	1.093916e-02	1.150477e-02	5.610984e-04	-5.610984e-04	2.638457e-02	-1.507236e-02
159           	2.171418e-02	-2.695923e-21	1.090749e-02	-2.726872e-04	2.024430e-02	5.428545e-04	1.058440e-02	1.112978e-02	5.428545e-04	-5.428545e-04	2.569804e-02	-1.479055e-02
160           	2.084115e-02	-2.658247e-21	1.096405e-02	-2.741013e-04	1.866005e-02	5.210287e-04	1.014647e-02	1.069468e-02	5.210287e-04	-5.210287e-04	2.414208e-02	-1.317802e-02
161           	1.998173e-02	-4.032698e-21	1.154954e-02	-2.887386e-04	1.611771e-02	4.995433e-04	9.702128e-03	1.027961e-02	4.995433e-04	-4.995433e-04	2.189248e-02	-1.034294e-02
162           	1.927580e-02	-6.329157e-21	1.266494e-02	-3.166236e-04	1.287161e-02	4.818951e-04	9.321278e-03	9.954525e-03	4.818951e-04	-4.818951e-04	1.920408e-02	-6.539139e-03
163           	1.871431e-02	-8.785986e-21	1.412901e-02	-3.532252e-04	9.230992e-03	4.678577e-04	9.003929e-03	9.710379e-03	4.678577e-04	-4.678577e-04	1.629550e-02	-2.166489e-03
164           	1.854680e-02	-1.130769e-20	1.585469e-02	-3.963674e-04	5.764104e-03	4.636701e-04	8.877034e-03	9.669769e-03	4.636701e-04	-4.636701e-04	1.369145e-02	2.163244e-03
165           	1.875136e-02	-1.683466e-20	1.743143e-02	-4.357857e-04	3.104360e-03	4.687839e-04	8.939892e-03	9.811463e-03	4.687839e-04	-4.687839e-04	1.182007e-02	5.611353e-03
166           	1.964518e-02	-1.965325e-20	1.865329e-02	-4.663322e-04	2.421261e-03	4.911294e-04	9.356257e-03	1.028892e-02	4.911294e-04	-4.911294e-04	1.174790e-02	6.905384e-03
167           	2.107105e-02	-2.098382e-20	1.939882e-02	-4.849704e-04	3.535244e-03	5.267763e-04	1.005056e-02	1.102050e-02	5.267763e-04	-5.267763e-04	1.323465e-02	6.164165e-03