# Force coefficients
# dragDir     : (1.000000e+00 0.000000e+00 0.000000e+00)
# sideDir     : (0.000000e+00 0.000000e+00 -1.000000e+00)
# liftDir     : (0.000000e+00 1.000000e+00 0.000000e+00)
# rollAxis    : (1.000000e+00 0.000000e+00 0.000000e+00)
# pitchAxis   : (0.000000e+00 0.000000e+00 -1.000000e+00)
# yawAxis     : (0.000000e+00 1.000000e+00 0.000000e+00)
# magUInf     : 2.000000e-02
# lRef        : 1.000000e-01
# Aref        : 1.000000e-01
# CofR        : (0.000000e+00 0.000000e+00 0.000000e+00)
#
# Time        	Cd            	Cs            	Cl            	CmRoll        	CmPitch       	CmYaw         	Cd(f)         	Cd(r)         	Cs(f)         	Cs(r)         	Cl(f)         	Cl(r)         
1             	1.047840e-02	-7.230746e-20	-1.036686e-03	2.591715e-05	2.381974e-02	2.619600e-04	5.265117e-03	5.213283e-03	2.619600e-04	-2.619600e-04	2.330139e-02	-2.433808e-02
2             	2.493660e-02	-3.448115e-20	-1.140128e-03	2.850319e-05	5.335312e-02	6.234151e-04	1.249680e-02	1.243980e-02	6.234151e-04	-6.234151e-04	5.278306e-02	-5.392318e-02
3             	2.373597e-02	1.389669e-20	1.808615e-03	-4.521537e-05	4.481407e-02	5.933994e-04	1.182277e-02	1.191320e-02	5.933994e-04	-5.933994e-04	4.571838e-02	-4.390977e-02
4             	2.028499e-02	1.085880e-20	3.707520e-03	-9.268799e-05	3.370545e-02	5.071247e-04	1.004981e-02	1.023518e-02	5.071247e-04	-5.071247e-04	3.555921e-02	-3.185169e-02
5             	1.876673e-02	-1.889778e-22	4.361473e-03	-1.090368e-04	2.929839e-02	4.691681e-04	9.274326e-03	9.492399e-03	4.691681e-04	-4.691681e-04	3.147913e-02	-2.711765e-02
6             	1.822361e-02	-4.870334e-21	4.815149e-03	-1.203787e-04	2.742864e-02	4.555903e-04	8.991427e-03	9.232185e-03	4.555903e-04	-4.555903e-04	2.983622e-02	-2.502107e-02
7             	1.815241e-02	-6.303063e-21	5.545343e-03	-1.386336e-04	2.602559e-02	4.538102e-04	8.937570e-03	9.214837e-03	4.538102e-04	-4.538102e-04	2.879826e-02	-2.325291e-02
8             	1.796230e-02	-5.297100e-21	6.462662e-03	-1.615665e-04	2.401298e-02	4.490575e-04	8.819583e-03	9.142717e-03	4.490575e-04	-4.490575e-04	2.724431e-02	-2.078165e-02
9             	1.761772e-02	-4.952324e-21	7.355004e-03	-1.838751e-04	2.171377e-02	4.404431e-04	8.624987e-03	8.992738e-03	4.404431e-04	-4.404431e-04	2.539127e-02	-1.803627e-02
10            	1.719283e-02	-4.109273e-21	8.086114e-03	-2.021529e-04	1.953238e-02	4.298209e-04	8.394264e-03	8.798570e-03	4.298209e-04	-4.298209e-04	2.357543e-02	-1.548932e-02
11            	1.678712e-02	-3.741549e-21	8.585136e-03	-2.146284e-04	1.780213e-02	4.196781e-04	8.178933e-03	8.608190e-03	4.196781e-04	-4.196781e-04	2.209470e-02	-1.350956e-02
12            	1.652797e-02	-3.984788e-21	8.835341e-03	-2.208835e-04	1.682106e-02	4.131993e-04	8.043102e-03	8.484869e-03	4.131993e-04	-4.131993e-04	2.123873e-02	-1.240339e-02
13            	1.638125e-02	-4.237142e-21	8.873198e-03	-2.218300e-04	1.646552e-02	4.095312e-04	7.968794e-03	8.412454e-03	4.095312e-04	-4.095312e-04	2.090212e-02	-1.202892e-02
14            	1.634846e-02	-4.520706e-21	8.737312e-03	-2.184328e-04	1.666339e-02	4.087116e-04	7.955799e-03	8.392665e-03	4.087116e-04	-4.087116e-04	2.103205e-02	-1.229473e-02
15            	1.638696e-02	-4.614044e-21	8.468449e-03	-2.117112e-04	1.724557e-02	4.096741e-04	7.981770e-03	8.405193e-03	4.096741e-04	-4.096741e-04	2.147979e-02	-1.301134e-02
16            	1.644873e-02	-4.699603e-21	8.100773e-03	-2.025193e-04	1.804889e-02	4.112181e-04	8.021843e-03	8.426882e-03	4.112181e-04	-4.112181e-04	2.209928e-02	-1.399850e-02
17            	1.651021e-02	-4.771668e-21	7.657557e-03	-1.914389e-04	1.898197e-02	4.127553e-04	8.063667e-03	8.446545e-03	4.127553e-04	-4.127553e-04	2.281074e-02	-1.515319e-02
18            	1.656538e-02	-4.825217e-21	7.156824e-03	-1.789206e-04	2.000235e-02	4.141346e-04	8.103771e-03	8.461612e-03	4.141346e-04	-4.141346e-04	2.358076e-02	-1.642393e-02
19            	1.661112e-02	-4.873925e-21	6.606433e-03	-1.651608e-04	2.108733e-02	4.152779e-04	8.140398e-03	8.470719e-03	4.152779e-04	-4.152779e-04	2.439054e-02	-1.778411e-02
20            	1.666685e-02	-4.879253e-21	6.016827e-03	-1.504207e-04	2.225957e-02	4.166714e-04	8.183007e-03	8.483848e-03	4.166714e-04	-4.166714e-04	2.526799e-02	-1.925116e-02
21            	1.675116e-02	-4.876028e-21	5.404027e-03	-1.351007e-04	2.352935e-02	4.187791e-04	8.240480e-03	8.510682e-03	4.187791e-04	-4.187791e-04	2.623136e-02	-2.082733e-02
22            	1.685761e-02	-4.823955e-21	4.773925e-03	-1.193481e-04	2.487458e-02	4.214404e-04	8.309459e-03	8.548155e-03	4.214404e-04	-4.214404e-04	2.726154e-02	-2.248761e-02
23            	1.698711e-02	-4.719313e-21	4.157559e-03	-1.039390e-04	2.625058e-02	4.246776e-04	8.389614e-03	8.597492e-03	4.246776e-04	-4.246776e-04	2.832936e-02	-2.417180e-02
24            	1.712216e-02	-4.637372e-21	3.598007e-03	-8.995018e-05	2.754900e-02	4.280540e-04	8.471131e-03	8.651031e-03	4.280540e-04	-4.280540e-04	2.934800e-02	-2.575000e-02
25            	1.722462e-02	-4.787269e-21	3.118795e-03	-7.796988e-05	2.864601e-02	4.306154e-04	8.534338e-03	8.690278e-03	4.306154e-04	-4.306154e-04	3.020541e-02	-2.708661e-02
26            	1.731599e-02	-4.891387e-21	2.735494e-03	-6.838736e-05	2.956058e-02	4.328998e-04	8.589609e-03	8.726384e-03	4.328998e-04	-4.328998e-04	3.092833e-02	-2.819284e-02
27            	1.739924e-02	-4.968013e-21	2.480628e-03	-6.201570e-05	3.023993e-02	4.349809e-04	8.637603e-03	8.761634e-03	4.349809e-04	-4.349809e-04	3.148024e-02	-2.899961e-02
28            	1.745923e-02	-5.061552e-21	2.389146e-03	-5.972866e-05	3.058646e-02	4.364807e-04	8.669885e-03	8.789343e-03	4.364807e-04	-4.364807e-04	3.178103e-02	-2.939188e-02
29            	1.752760e-02	-5.248857e-21	2.476083e-03	-6.190207e-05	3.063513e-02	4.381899e-04	8.701896e-03	8.825701e-03	4.381899e-04	-4.381899e-04	3.187317e-02	-2.939709e-02
30            	1.758532e-02	-5.140063e-21	2.747993e-03	-6.869981e-05	3.032851e-02	4.396330e-04	8.723959e-03	8.861359e-03	4.396330e-04	-4.396330e-04	3.170250e-02	-2.895451e-02
31            	1.764463e-02	-5.133537e-21	3.206317e-03	-8.015793e-05	2.968404e-02	4.411158e-04	8.742158e-03	8.902474e-03	4.411158e-04	-4.411158e-04	3.128720e-02	-2.808088e-02
32            	1.762580e-02	-5.173861e-21	3.843960e-03	-9.609901e-05	2.852758e-02	4.406451e-04	8.716803e-03	8.909001e-03	4.406451e-04	-4.406451e-04	3.044956e-02	-2.660560e-02
33            	1.756795e-02	-5.147645e-21	4.574343e-03	-1.143586e-04	2.709984e-02	4.391988e-04	8.669618e-03	8.898336e-03	4.391988e-04	-4.391988e-04	2.938701e-02	-2.481266e-02
34            	1.745593e-02	-5.047342e-21	5.344084e-03	-1.336021e-04	2.545514e-02	4.363981e-04	8.594361e-03	8.861565e-03	4.363981e-04	-4.363981e-04	2.812718e-02	-2.278309e-02
35            	1.729963e-02	-4.835996e-21	6.098598e-03	-1.524649e-04	2.370886e-02	4.324907e-04	8.497349e-03	8.802279e-03	4.324907e-04	-4.324907e-04	2.675816e-02	-2.065956e-02
36            	1.712618e-02	-4.734588e-21	6.721187e-03	-1.680297e-04	2.214114e-02	4.281546e-04	8.395062e-03	8.731121e-03	4.281546e-04	-4.281546e-04	2.550173e-02	-1.878054e-02
37            	1.701691e-02	-4.816495e-21	7.073405e-03	-1.768351e-04	2.120201e-02	4.254228e-04	8.331621e-03	8.685291e-03	4.254228e-04	-4.254228e-04	2.473872e-02	-1.766531e-02
38            	1.700316e-02	-4.786387e-21	7.150711e-03	-1.787678e-04	2.098296e-02	4.250790e-04	8.322813e-03	8.680349e-03	4.250790e-04	-4.250790e-04	2.455831e-02	-1.740760e-02
39            	1.700524e-02	-4.793974e-21	7.021976e-03	-1.755494e-04	2.118106e-02	4.251309e-04	8.327069e-03	8.678168e-03	4.251309e-04	-4.251309e-04	2.469204e-02	-1.767007e-02
40            	1.695194e-02	-4.912141e-21	6.774772e-03	-1.693693e-04	2.147896e-02	4.237986e-04	8.306602e-03	8.645341e-03	4.237986e-04	-4.237986e-04	2.486635e-02	-1.809158e-02
41            	1.693605e-02	-5.245006e-21	6.380486e-03	-1.595122e-04	2.210216e-02	4.234013e-04	8.308514e-03	8.627538e-03	4.234013e-04	-4.234013e-04	2.529240e-02	-1.891192e-02
42            	1.700485e-02	-5.209586e-21	5.814274e-03	-1.453569e-04	2.318695e-02	4.251213e-04	8.357069e-03	8.647783e-03	4.251213e-04	-4.251213e-04	2.609409e-02	-2.027982e-02
43            	1.727892e-02	-4.740990e-21	5.023224e-03	-1.255806e-04	2.510485e-02	4.319730e-04	8.513879e-03	8.765040e-03	4.319730e-04	-4.319730e-04	2.761647e-02	-2.259324e-02
44            	1.777725e-02	-4.149827e-21	4.029387e-03	-1.007347e-04	2.787434e-02	4.444311e-04	8.787888e-03	8.989357e-03	4.444311e-04	-4.444311e-04	2.988904e-02	-2.585965e-02
45            	1.847289e-02	-3.828131e-21	2.945882e-03	-7.364705e-05	3.128182e-02	4.618223e-04	9.162799e-03	9.310094e-03	4.618223e-04	-4.618223e-04	3.275476e-02	-2.980888e-02
46            	1.919239e-02	-3.786345e-21	1.949810e-03	-4.874524e-05	3.465435e-02	4.798097e-04	9.547448e-03	9.644939e-03	4.798097e-04	-4.798097e-04	3.562926e-02	-3.367945e-02
47            	1.984462e-02	-3.765547e-21	1.238347e-03	-3.095868e-05	3.743880e-02	4.961155e-04	9.891351e-03	9.953268e-03	4.961155e-04	-4.961155e-04	3.805798e-02	-3.681963e-02
48            	2.034364e-02	-3.831228e-21	9.934761e-04	-2.483690e-05	3.910563e-02	5.085910e-04	1.014698e-02	1.019666e-02	5.085910e-04	-5.085910e-04	3.960237e-02	-3.860889e-02
49            	2.068181e-02	-4.472859e-21	1.309708e-03	-3.274271e-05	3.943309e-02	5.170453e-04	1.030816e-02	1.037365e-02	5.170453e-04	-5.170453e-04	4.008794e-02	-3.877824e-02
50            	2.074450e-02	-4.368190e-21	2.250191e-03	-5.625477e-05	3.803324e-02	5.186126e-04	1.031600e-02	1.042851e-02	5.186126e-04	-5.186126e-04	3.915834e-02	-3.690815e-02
51            	2.053152e-02	-4.571645e-21	3.742353e-03	-9.355883e-05	3.497719e-02	5.132880e-04	1.017220e-02	1.035932e-02	5.132880e-04	-5.132880e-04	3.684837e-02	-3.310601e-02
52            	1.999942e-02	-4.153963e-21	5.552487e-03	-1.388122e-04	3.056478e-02	4.999855e-04	9.860899e-03	1.013852e-02	4.999855e-04	-4.999855e-04	3.334102e-02	-2.778854e-02
53            	1.927088e-02	-3.590221e-21	7.251627e-03	-1.812907e-04	2.581685e-02	4.817721e-04	9.454151e-03	9.816732e-03	4.817721e-04	-4.817721e-04	2.944266e-02	-2.219104e-02
54            	1.859934e-02	-4.214309e-21	8.499878e-03	-2.124970e-04	2.196970e-02	4.649836e-04	9.087175e-03	9.512169e-03	4.649836e-04	-4.649836e-04	2.621963e-02	-1.771976e-02
55            	1.815382e-02	-4.239235e-21	9.042061e-03	-2.260515e-04	1.992916e-02	4.538455e-04	8.850859e-03	9.302962e-03	4.538455e-04	-4.538455e-04	2.445019e-02	-1.540813e-02
56            	1.790985e-02	-4.186788e-21	8.951877e-03	-2.237969e-04	1.948350e-02	4.477462e-04	8.731126e-03	9.178720e-03	4.477462e-04	-4.477462e-04	2.395944e-02	-1.500756e-02
57            	1.774897e-02	-4.267924e-21	8.472313e-03	-2.118078e-04	1.992537e-02	4.437243e-04	8.662678e-03	9.086294e-03	4.437243e-04	-4.437243e-04	2.416152e-02	-1.568921e-02
58            	1.766870e-02	-4.297412e-21	7.669963e-03	-1.917491e-04	2.109514e-02	4.417174e-04	8.642600e-03	9.026098e-03	4.417174e-04	-4.417174e-04	2.493012e-02	-1.726016e-02
59            	1.777226e-02	-4.133721e-21	6.627343e-03	-1.656836e-04	2.308279e-02	4.443064e-04	8.720445e-03	9.051812e-03	4.443064e-04	-4.443064e-04	2.639647e-02	-1.976912e-02
60            	1.807553e-02	-3.775161e-21	5.394565e-03	-1.348641e-04	2.584213e-02	4.518884e-04	8.902903e-03	9.172631e-03	4.518884e-04	-4.518884e-04	2.853941e-02	-2.314484e-02
61            	1.854643e-02	-3.432189e-21	4.003797e-03	-1.000949e-04	2.928101e-02	4.636606e-04	9.173118e-03	9.373308e-03	4.636606e-04	-4.636606e-04	3.128290e-02	-2.727911e-02
62            	1.933175e-02	-3.755266e-21	2.581140e-03	-6.452850e-05	3.351570e-02	4.832938e-04	9.601347e-03	9.730404e-03	4.832938e-04	-4.832938e-04	3.480627e-02	-3.222513e-02
63            	2.021498e-02	-4.034445e-21	1.310242e-03	-3.275605e-05	3.777384e-02	5.053745e-04	1.007473e-02	1.014025e-02	5.053745e-04	-5.053745e-04	3.842896e-02	-3.711872e-02
64            	2.106321e-02	-4.021004e-21	4.455559e-04	-1.113890e-05	4.130426e-02	5.265804e-04	1.052047e-02	1.054275e-02	5.265804e-04	-5.265804e-04	4.152704e-02	-4.108148e-02
65            	2.168389e-02	-4.077717e-21	2.037132e-04	-5.092831e-06	4.328505e-02	5.420974e-04	1.083685e-02	1.084704e-02	5.420974e-04	-5.420974e-04	4.338691e-02	-4.318320e-02
66            	2.202618e-02	-4.128553e-21	6.724848e-04	-1.681212e-05	4.340352e-02	5.506546e-04	1.099628e-02	1.102990e-02	5.506546e-04	-5.506546e-04	4.373976e-02	-4.306728e-02
67            	2.201879e-02	-3.896467e-21	1.846219e-03	-4.615548e-05	4.145543e-02	5.504697e-04	1.096324e-02	1.105555e-02	5.504697e-04	-5.504697e-04	4.237854e-02	-4.053232e-02
68            	2.154209e-02	-3.972638e-21	3.526219e-03	-8.815548e-05	3.751138e-02	5.385523e-04	1.068289e-02	1.085920e-02	5.385523e-04	-5.385523e-04	3.927449e-02	-3.574827e-02
69            	2.083598e-02	-3.698855e-21	5.463553e-03	-1.365888e-04	3.251958e-02	5.208994e-04	1.028140e-02	1.055458e-02	5.208994e-04	-5.208994e-04	3.525135e-02	-2.978780e-02
70            	1.998679e-02	-3.220772e-21	7.293825e-03	-1.823456e-04	2.728703e-02	4.996697e-04	9.811047e-03	1.017574e-02	4.996697e-04	-4.996697e-04	3.093394e-02	-2.364012e-02
71            	1.921412e-02	-3.896472e-21	8.731862e-03	-2.182966e-04	2.286484e-02	4.803530e-04	9.388763e-03	9.825356e-03	4.803530e-04	-4.803530e-04	2.723077e-02	-1.849891e-02
72            	1.868438e-02	-4.004932e-21	9.451113e-03	-2.362778e-04	2.030297e-02	4.671096e-04	9.105914e-03	9.578470e-03	4.671096e-04	-4.671096e-04	2.502853e-02	-1.557741e-02
73            	1.836703e-02	-4.006419e-21	9.477015e-03	-2.369254e-04	1.947435e-02	4.591758e-04	8.946591e-03	9.420442e-03	4.591758e-04	-4.591758e-04	2.421286e-02	-1.473584e-02
74            	1.815899e-02	-4.089910e-21	9.013280e-03	-2.253320e-04	1.977735e-02	4.539748e-04	8.854163e-03	9.304827e-03	4.539748e-04	-4.539748e-04	2.428399e-02	-1.527071e-02
75            	1.802338e-02	-4.473728e-21	8.224925e-03	-2.056231e-04	2.080959e-02	4.505845e-04	8.806067e-03	9.217313e-03	4.505845e-04	-4.505845e-04	2.492205e-02	-1.669713e-02
76            	1.804401e-02	-4.297263e-21	7.141531e-03	-1.785383e-04	2.267591e-02	4.511002e-04	8.843465e-03	9.200542e-03	4.511002e-04	-4.511002e-04	2.624667e-02	-1.910514e-02
77            	1.837820e-02	-4.230400e-21	5.832446e-03	-1.458112e-04	2.561911e-02	4.594549e-04	9.043287e-03	9.334909e-03	4.594549e-04	-4.594549e-04	2.853534e-02	-2.270289e-02
78            	1.886714e-02	-3.826764e-21	4.360816e-03	-1.090204e-04	2.921481e-02	4.716785e-04	9.324550e-03	9.542591e-03	4.716785e-04	-4.716785e-04	3.139522e-02	-2.703440e-02
79            	1.963378e-02	-3.661266e-21	2.804950e-03	-7.012375e-05	3.362077e-02	4.908446e-04	9.746768e-03	9.887016e-03	4.908446e-04	-4.908446e-04	3.502324e-02	-3.221829e-02
80            	2.059634e-02	-3.818848e-21	1.346580e-03	-3.366451e-05	3.835995e-02	5.149086e-04	1.026451e-02	1.033184e-02	5.149086e-04	-5.149086e-04	3.903324e-02	-3.768666e-02
81            	2.152584e-02	-3.893993e-21	2.284639e-04	-5.711597e-06	4.251334e-02	5.381461e-04	1.075721e-02	1.076863e-02	5.381461e-04	-5.381461e-04	4.262757e-02	-4.239911e-02
82            	2.224373e-02	-3.941327e-21	-3.165973e-04	7.914931e-06	4.525297e-02	5.560934e-04	1.112978e-02	1.111395e-02	5.560934e-04	-5.560934e-04	4.509467e-02	-4.541127e-02
83            	2.265942e-02	-4.053164e-21	-1.506651e-04	3.766627e-06	4.609592e-02	5.664855e-04	1.133348e-02	1.132594e-02	5.664855e-04	-5.664855e-04	4.602059e-02	-4.617125e-02
84            	2.271488e-02	-4.377350e-21	7.341213e-04	-1.835303e-05	4.485254e-02	5.678720e-04	1.133909e-02	1.137579e-02	5.678720e-04	-5.678720e-04	4.521961e-02	-4.448548e-02
85            	2.245712e-02	-4.054294e-21	2.255811e-03	-5.639527e-05	4.172940e-02	5.614281e-04	1.117217e-02	1.128496e-02	5.614281e-04	-5.614281e-04	4.285730e-02	-4.060149e-02
86            	2.181192e-02	-3.658214e-21	4.161811e-03	-1.040453e-04	3.699155e-02	5.452981e-04	1.080192e-02	1.101001e-02	5.452981e-04	-5.452981e-04	3.907245e-02	-3.491064e-02
87            	2.099354e-02	-3.498031e-21	6.226626e-03	-1.556656e-04	3.148206e-02	5.248386e-04	1.034111e-02	1.065244e-02	5.248386e-04	-5.248386e-04	3.459537e-02	-2.836875e-02
88            	2.010853e-02	-3.706929e-21	8.072515e-03	-2.018129e-04	2.609962e-02	5.027134e-04	9.852454e-03	1.025608e-02	5.027134e-04	-5.027134e-04	3.013588e-02	-2.206337e-02
89            	1.932050e-02	-4.040129e-21	9.382159e-03	-2.345540e-04	2.186474e-02	4.830125e-04	9.425697e-03	9.894805e-03	4.830125e-04	-4.830125e-04	2.655582e-02	-1.717366e-02
90            	1.883967e-02	-4.056668e-21	9.868051e-03	-2.467013e-04	1.982026e-02	4.709917e-04	9.173132e-03	9.666535e-03	4.709917e-04	-4.709917e-04	2.475428e-02	-1.488623e-02
91            	1.856713e-02	-4.036531e-21	9.660577e-03	-2.415144e-04	1.949997e-02	4.641782e-04	9.042050e-03	9.525079e-03	4.641782e-04	-4.641782e-04	2.433025e-02	-1.466968e-02
92            	1.834716e-02	-4.161491e-21	9.030766e-03	-2.257692e-04	2.006552e-02	4.586790e-04	8.947810e-03	9.399349e-03	4.586790e-04	-4.586790e-04	2.458090e-02	-1.555014e-02
93            	1.824166e-02	-4.465159e-21	8.083142e-03	-2.020785e-04	2.142646e-02	4.560415e-04	8.918750e-03	9.322908e-03	4.560415e-04	-4.560415e-04	2.546803e-02	-1.738489e-02
94            	1.832713e-02	-4.250059e-21	6.804248e-03	-1.701062e-04	2.376718e-02	4.581783e-04	8.993461e-03	9.333673e-03	4.581783e-04	-4.581783e-04	2.716931e-02	-2.036506e-02
95            	1.880629e-02	-4.080295e-21	5.350291e-03	-1.337573e-04	2.728581e-02	4.701574e-04	9.269390e-03	9.536905e-03	4.701574e-04	-4.701574e-04	2.996095e-02	-2.461066e-02
96            	1.940186e-02	-3.541009e-21	3.779170e-03	-9.447925e-05	3.130966e-02	4.850465e-04	9.606452e-03	9.795410e-03	4.850465e-04	-4.850465e-04	3.319924e-02	-2.942007e-02
97            	2.024392e-02	-3.706796e-21	2.170210e-03	-5.425524e-05	3.600166e-02	5.060980e-04	1.006770e-02	1.017621e-02	5.060980e-04	-5.060980e-04	3.708677e-02	-3.491656e-02
98            	2.125894e-02	-3.888501e-21	7.266194e-04	-1.816548e-05	4.086201e-02	5.314736e-04	1.061131e-02	1.064764e-02	5.314736e-04	-5.314736e-04	4.122532e-02	-4.049870e-02
99            	2.215989e-02	-3.857582e-21	-2.760431e-04	6.901077e-06	4.478238e-02	5.539973e-04	1.108685e-02	1.107304e-02	5.539973e-04	-5.539973e-04	4.464436e-02	-4.492040e-02
100           	2.277243e-02	-3.850759e-21	-6.291700e-04	1.572925e-05	4.698006e-02	5.693109e-04	1.140195e-02	1.137049e-02	5.693109e-04	-5.693109e-04	4.666547e-02	-4.729464e-02
101           	2.305511e-02	-4.149788e-21	-2.454471e-04	6.136177e-06	4.715473e-02	5.763778e-04	1.153369e-02	1.152142e-02	5.763778e-04	-5.763778e-04	4.703201e-02	-4.727745e-02
102           	2.301956e-02	-4.474980e-21	8.675785e-04	-2.168946e-05	4.530622e-02	5.754890e-04	1.148809e-02	1.153147e-02	5.754890e-04	-5.754890e-04	4.574001e-02	-4.487243e-02
103           	2.262813e-02	-4.008641e-21	2.579454e-03	-6.448634e-05	4.154381e-02	5.657034e-04	1.124958e-02	1.137855e-02	5.657034e-04	-5.657034e-04	4.283354e-02	-4.025409e-02
104           	2.189888e-02	-3.630542e-21	4.601646e-03	-1.150411e-04	3.640061e-02	5.474719e-04	1.083440e-02	1.106448e-02	5.474719e-04	-5.474719e-04	3.870143e-02	-3.409978e-02
105           	2.101081e-02	-3.355524e-21	6.710304e-03	-1.677576e-04	3.063067e-02	5.252701e-04	1.033765e-02	1.067316e-02	5.252701e-04	-5.252701e-04	3.398582e-02	-2.727552e-02
106           	2.008536e-02	-3.873357e-21	8.531764e-03	-2.132941e-04	2.518417e-02	5.021339e-04	9.829385e-03	1.025597e-02	5.021339e-04	-5.021339e-04	2.945005e-02	-2.091829e-02
107           	1.932280e-02	-4.086914e-21	9.697556e-03	-2.424389e-04	2.126084e-02	4.830701e-04	9.418963e-03	9.903841e-03	4.830701e-04	-4.830701e-04	2.610962e-02	-1.641206e-02
108           	1.889525e-02	-4.062375e-21	1.001051e-02	-2.502628e-04	1.964247e-02	4.723812e-04	9.197360e-03	9.697886e-03	4.723812e-04	-4.723812e-04	2.464773e-02	-1.463722e-02
109           	1.863333e-02	-4.080888e-21	9.669631e-03	-2.417408e-04	1.958286e-02	4.658331e-04	9.074922e-03	9.558403e-03	4.658331e-04	-4.658331e-04	2.441768e-02	-1.474805e-02
110           	1.842274e-02	-4.391958e-21	8.937176e-03	-2.234294e-04	2.034692e-02	4.605685e-04	8.987941e-03	9.434800e-03	4.605685e-04	-4.605685e-04	2.481551e-02	-1.587834e-02
111           	1.836816e-02	-4.354896e-21	7.898421e-03	-1.974605e-04	2.196863e-02	4.592040e-04	8.986619e-03	9.381540e-03	4.592040e-04	-4.592040e-04	2.591784e-02	-1.801942e-02
112           	1.851936e-02	-4.208288e-21	6.524823e-03	-1.631206e-04	2.461693e-02	4.629839e-04	9.096557e-03	9.422798e-03	4.629839e-04	-4.629839e-04	2.787935e-02	-2.135452e-02
113           	1.906004e-02	-3.935126e-21	4.997909e-03	-1.249477e-04	2.840246e-02	4.765009e-04	9.405070e-03	9.654966e-03	4.765009e-04	-4.765009e-04	3.090142e-02	-2.590351e-02
114           	1.970920e-02	-3.478324e-21	3.383918e-03	-8.459796e-05	3.263532e-02	4.927301e-04	9.770004e-03	9.939200e-03	4.927301e-04	-4.927301e-04	3.432728e-02	-3.094337e-02
115           	2.059997e-02	-3.796773e-21	1.763773e-03	-4.409432e-05	3.747285e-02	5.149993e-04	1.025589e-02	1.034408e-02	5.149993e-04	-5.149993e-04	3.835474e-02	-3.659096e-02
116           	2.162407e-02	-3.894914e-21	3.700165e-04	-9.250414e-06	4.228671e-02	5.406017e-04	1.080278e-02	1.082128e-02	5.406017e-04	-5.406017e-04	4.247172e-02	-4.210171e-02
117           	2.244667e-02	-3.669800e-21	-5.184472e-04	1.296118e-05	4.585541e-02	5.611667e-04	1.123629e-02	1.121037e-02	5.611667e-04	-5.611667e-04	4.559619e-02	-4.611464e-02
118           	2.300926e-02	-3.882648e-21	-7.346580e-04	1.836645e-05	4.771167e-02	5.752316e-04	1.152300e-02	1.148626e-02	5.752316e-04	-5.752316e-04	4.734434e-02	-4.807899e-02
119           	2.321851e-02	-4.217094e-21	-1.861027e-04	4.652569e-06	4.743393e-02	5.804627e-04	1.161391e-02	1.160460e-02	5.804627e-04	-5.804627e-04	4.734088e-02	-4.752698e-02
120           	2.309127e-02	-4.554466e-21	1.082334e-03	-2.705834e-05	4.510170e-02	5.772817e-04	1.151857e-02	1.157269e-02	5.772817e-04	-5.772817e-04	4.564287e-02	-4.456054e-02
121           	2.262046e-02	-4.062971e-21	2.897327e-03	-7.243316e-05	4.097046e-02	5.655116e-04	1.123780e-02	1.138266e-02	5.655116e-04	-5.655116e-04	4.241912e-02	-3.952180e-02
122           	2.184080e-02	-3.901367e-21	4.988093e-03	-1.247023e-04	3.556379e-02	5.460199e-04	1.079570e-02	1.104510e-02	5.460199e-04	-5.460199e-04	3.805783e-02	-3.306974e-02
123           	2.088857e-02	-3.181034e-21	7.080977e-03	-1.770244e-04	2.967041e-02	5.222143e-04	1.026726e-02	1.062131e-02	5.222143e-04	-5.222143e-04	3.321090e-02	-2.612992e-02
124           	1.996698e-02	-3.937353e-21	8.825118e-03	-2.206280e-04	2.436565e-02	4.991744e-04	9.762860e-03	1.020412e-02	4.991744e-04	-4.991744e-04	2.877820e-02	-1.995309e-02
125           	1.926012e-02	-4.101518e-21	9.845136e-03	-2.461284e-04	2.083693e-02	4.815031e-04	9.383934e-03	9.876191e-03	4.815031e-04	-4.815031e-04	2.575949e-02	-1.591436e-02
126           	1.886250e-02	-4.045948e-21	1.003119e-02	-2.507798e-04	1.952012e-02	4.715626e-04	9.180471e-03	9.682031e-03	4.715626e-04	-4.715626e-04	2.453571e-02	-1.450452e-02
127           	1.862918e-02	-4.083207e-21	9.607895e-03	-2.401974e-04	1.967020e-02	4.657294e-04	9.074391e-03	9.554786e-03	4.657294e-04	-4.657294e-04	2.447415e-02	-1.486625e-02
128           	1.843062e-02	-4.235071e-21	8.835751e-03	-2.208938e-04	2.052736e-02	4.607654e-04	8.994415e-03	9.436202e-03	4.607654e-04	-4.607654e-04	2.494523e-02	-1.610948e-02
129           	1.838798e-02	-4.313932e-21	7.758216e-03	-1.939554e-04	2.224021e-02	4.596996e-04	9.000037e-03	9.387947e-03	4.596996e-04	-4.596996e-04	2.611932e-02	-1.836111e-02
130           	1.855940e-02	-4.378775e-21	6.353980e-03	-1.588495e-04	2.498837e-02	4.639851e-04	9.120852e-03	9.438551e-03	4.639851e-04	-4.639851e-04	2.816536e-02	-2.181138e-02
131           	1.908833e-02	-3.935222e-21	4.772094e-03	-1.193024e-04	2.884891e-02	4.772084e-04	9.424865e-03	9.663470e-03	4.772084e-04	-4.772084e-04	3.123495e-02	-2.646286e-02
132           	1.984450e-02	-3.473172e-21	3.116670e-03	-7.791675e-05	3.339393e-02	4.961125e-04	9.844333e-03	1.000017e-02	4.961125e-04	-4.961125e-04	3.495226e-02	-3.183559e-02
133           	2.078827e-02	-3.824159e-21	1.507606e-03	-3.769015e-05	3.834493e-02	5.197067e-04	1.035644e-02	1.043182e-02	5.197067e-04	-5.197067e-04	3.909873e-02	-3.759113e-02
134           	2.179796e-02	-3.896947e-21	1.756630e-04	-4.391575e-06	4.303363e-02	5.449489e-04	1.089459e-02	1.090337e-02	5.449489e-04	-5.449489e-04	4.312147e-02	-4.294580e-02
135           	2.257263e-02	-3.694555e-21	-6.212030e-04	1.553007e-05	4.634526e-02	5.643158e-04	1.130185e-02	1.127079e-02	5.643158e-04	-5.643158e-04	4.603466e-02	-4.665586e-02
136           	2.314028e-02	-4.182856e-21	-7.339049e-04	1.834762e-05	4.802883e-02	5.785070e-04	1.158849e-02	1.155179e-02	5.785070e-04	-5.785070e-04	4.766187e-02	-4.839578e-02
137           	2.327938e-02	-4.328662e-21	-6.983623e-05	1.745906e-06	4.739256e-02	5.819844e-04	1.164143e-02	1.163794e-02	5.819844e-04	-5.819844e-04	4.735764e-02	-4.742748e-02
138           	2.308712e-02	-4.413736e-21	1.307778e-03	-3.269446e-05	4.471545e-02	5.771779e-04	1.151086e-02	1.157625e-02	5.771779e-04	-5.771779e-04	4.536934e-02	-4.406156e-02
139           	2.253548e-02	-3.913483e-21	3.193490e-03	-7.983726e-05	4.027129e-02	5.633870e-04	1.118790e-02	1.134758e-02	5.633870e-04	-5.633870e-04	4.186803e-02	-3.867454e-02
140           	2.171735e-02	-3.824551e-21	5.300629e-03	-1.325157e-04	3.473540e-02	5.429337e-04	1.072616e-02	1.099119e-02	5.429337e-04	-5.429337e-04	3.738571e-02	-3.208508e-02
141           	2.075855e-02	-3.147758e-21	7.348971e-03	-1.837243e-04	2.888872e-02	5.189636e-04	1.019555e-02	1.056300e-02	5.189636e-04	-5.189636e-04	3.256320e-02	-2.521423e-02
142           	1.985194e-02	-3.983390e-21	9.018295e-03	-2.254574e-04	2.374583e-02	4.962986e-04	9.700515e-03	1.015143e-02	4.962986e-04	-4.962986e-04	2.825497e-02	-1.923668e-02
143           	1.919169e-02	-4.108506e-21	9.927792e-03	-2.481948e-04	2.052399e-02	4.797922e-04	9.347649e-03	9.844039e-03	4.797922e-04	-4.797922e-04	2.548788e-02	-1.556009e-02
144           	1.880834e-02	-4.078415e-21	1.003310e-02	-2.508275e-04	1.938621e-02	4.702084e-04	9.153341e-03	9.654996e-03	4.702084e-04	-4.702084e-04	2.440276e-02	-1.436966e-02
145           	1.858111e-02	-4.129175e-21	9.559190e-03	-2.389798e-04	1.964241e-02	4.645279e-04	9.051578e-03	9.529537e-03	4.645279e-04	-4.645279e-04	2.442200e-02	-1.486281e-02
146           	1.840894e-02	-4.449252e-21	8.734691e-03	-2.183673e-04	2.064290e-02	4.602235e-04	8.986103e-03	9.422837e-03	4.602235e-04	-4.602235e-04	2.501025e-02	-1.627556e-02
147           	1.841378e-02	-4.345479e-21	7.602227e-03	-1.900557e-04	2.255310e-02	4.603445e-04	9.016835e-03	9.396946e-03	4.603445e-04	-4.603445e-04	2.635421e-02	-1.875198e-02
148           	1.865098e-02	-4.129270e-21	6.167627e-03	-1.541907e-04	2.549798e-02	4.662745e-04	9.171300e-03	9.479681e-03	4.662745e-04	-4.662745e-04	2.858179e-02	-2.241417e-02
149           	1.919366e-02	-3.872420e-21	4.563161e-03	-1.140790e-04	2.943503e-02	4.798414e-04	9.482750e-03	9.710908e-03	4.798414e-04	-4.798414e-04	3.171661e-02	-2.715345e-02
150           	1.996767e-02	-3.558375e-21	2.903635e-03	-7.259089e-05	3.403736e-02	4.991918e-04	9.911244e-03	1.005643e-02	4.991918e-04	-4.991918e-04	3.548918e-02	-3.258554e-02
151           	2.093083e-02	-3.884460e-21	1.312793e-03	-3.281981e-05	3.900986e-02	5.232708e-04	1.043260e-02	1.049824e-02	5.232708e-04	-5.232708e-04	3.966625e-02	-3.835346e-02
152           	2.192691e-02	-3.915357e-21	3.574297e-05	-8.935743e-07	4.358316e-02	5.481726e-04	1.096256e-02	1.096435e-02	5.481726e-04	-5.481726e-04	4.360104e-02	-4.356529e-02
153           	2.269063e-02	-3.719193e-21	-6.788708e-04	1.697177e-05	4.673408e-02	5.672658e-04	1.136229e-02	1.132834e-02	5.672658e-04	-5.672658e-04	4.639464e-02	-4.707351e-02
154           	2.316214e-02	-3.957414e-21	-6.852980e-04	1.713245e-05	4.802449e-02	5.790534e-04	1.159820e-02	1.156394e-02	5.790534e-04	-5.790534e-04	4.768184e-02	-4.836714e-02
155           	2.326359e-02	-4.313247e-21	6.777903e-05	-1.694476e-06	4.713991e-02	5.815897e-04	1.163010e-02	1.163349e-02	5.815897e-04	-5.815897e-04	4.717380e-02	-4.710602e-02
156           	2.303549e-02	-4.638523e-21	1.513920e-03	-3.784801e-05	4.425315e-02	5.758873e-04	1.147990e-02	1.155559e-02	5.758873e-04	-5.758873e-04	4.501011e-02	-4.349619e-02
157           	2.246518e-02	-3.792175e-21	3.467382e-03	-8.668455e-05	3.963657e-02	5.616296e-04	1.114591e-02	1.131928e-02	5.616296e-04	-5.616296e-04	4.137026e-02	-3.790288e-02
158           	2.161364e-02	-3.775278e-21	5.598785e-03	-1.399696e-04	3.397041e-02	5.403410e-04	1.066685e-02	1.094679e-02	5.403410e-04	-5.403410e-04	3.676981e-02	-3.117102e-02
159           	2.064035e-02	-3.141068e-21	7.611898e-03	-1.902974e-04	2.813568e-02	5.160088e-04	1.012988e-02	1.051047e-02	5.160088e-04	-5.160088e-04	3.194163e-02	-2.432973e-02
160           	1.975552e-02	-3.998832e-21	9.187149e-03	-2.296787e-04	2.320459e-02	4.938880e-04	9.648081e-03	1.010744e-02	4.938880e-04	-4.938880e-04	2.779816e-02	-1.861101e-02
161           	1.915518e-02	-4.087906e-21	9.969234e-03	-2.492309e-04	2.035046e-02	4.788795e-04	9.328360e-03	9.826821e-03	4.788795e-04	-4.788795e-04	2.533507e-02	-1.536584e-02
162           	1.877744e-02	-4.094442e-21	9.991697e-03	-2.497924e-04	1.937918e-02	4.694360e-04	9.138928e-03	9.638513e-03	4.694360e-04	-4.694360e-04	2.437503e-02	-1.438333e-02
163           	1.855276e-02	-4.157070e-21	9.456704e-03	-2.364176e-04	1.975070e-02	4.638190e-04	9.039961e-03	9.512797e-03	4.638190e-04	-4.638190e-04	2.447905e-02	-1.502235e-02
164           	1.839777e-02	-4.489365e-21	8.586081e-03	-2.146520e-04	2.086730e-02	4.599442e-04	8.984232e-03	9.413536e-03	4.599442e-04	-4.599442e-04	2.516034e-02	-1.657426e-02
165           	1.840692e-02	-4.353781e-21	7.385606e-03	-1.846401e-04	2.290174e-02	4.601730e-04	9.018819e-03	9.388099e-03	4.601730e-04	-4.601730e-04	2.659454e-02	-1.920894e-02
166           	1.877688e-02	-4.051677e-21	5.967561e-03	-1.491890e-04	2.610764e-02	4.694220e-04	9.239251e-03	9.537629e-03	4.694220e-04	-4.694220e-04	2.909142e-02	-2.312386e-02
167           	1.927097e-02	-3.852834e-21	4.382042e-03	-1.095510e-04	2.991249e-02	4.817744e-04	9.525936e-03	9.745038e-03	4.817744e-04	-4.817744e-04	3.210351e-02	-2.772147e-02