# Force coefficients
# dragDir     : (1.000000e+00 0.000000e+00 0.000000e+00)
# sideDir     : (0.000000e+00 0.000000e+00 -1.000000e+00)
# liftDir     : (0.000000e+00 1.000000e+00 0.000000e+00)
# rollAxis    : (1.000000e+00 0.000000e+00 0.000000e+00)
# pitchAxis   : (0.000000e+00 0.000000e+00 -1.000000e+00)
# yawAxis     : (0.000000e+00 1.000000e+00 0.000000e+00)
# magUInf     : 6.000000e-02
# lRef        : 1.000000e-01
# Aref        : 1.000000e-01
# CofR        : (0.000000e+00 0.000000e+00 0.000000e+00)
#
# Time        	Cd            	Cs            	Cl            	CmRoll        	CmPitch       	CmYaw         	Cd(f)         	Cd(r)         	Cs(f)         	Cs(r)         	Cl(f)         	Cl(r)         
1             	2.078041e-03	-5.888003e-20	-3.169161e-04	7.922902e-06	5.056868e-03	5.195103e-05	1.046944e-03	1.031098e-03	5.195103e-05	-5.195103e-05	4.898410e-03	-5.215326e-03
2             	1.079458e-02	5.362919e-21	1.515366e-03	-3.788415e-05	2.020374e-02	2.698644e-04	5.359403e-03	5.435172e-03	2.698644e-04	-2.698644e-04	2.096142e-02	-1.944606e-02
3             	1.225866e-02	6.896490e-20	5.142227e-03	-1.285557e-04	1.681384e-02	3.064666e-04	6.000777e-03	6.257888e-03	3.064666e-04	-3.064666e-04	1.938495e-02	-1.424272e-02
4             	1.160300e-02	8.145450e-20	6.387653e-03	-1.596913e-04	1.349390e-02	2.900749e-04	5.641807e-03	5.961190e-03	2.900749e-04	-2.900749e-04	1.668773e-02	-1.030007e-02
5             	1.109066e-02	2.633335e-20	5.886869e-03	-1.471717e-04	1.348191e-02	2.772666e-04	5.398159e-03	5.692503e-03	2.772666e-04	-2.772666e-04	1.642535e-02	-1.053848e-02
6             	1.151738e-02	-1.708009e-21	5.172508e-03	-1.293127e-04	1.566133e-02	2.879344e-04	5.629376e-03	5.888002e-03	2.879344e-04	-2.879344e-04	1.824758e-02	-1.307507e-02
7             	1.209860e-02	-2.012668e-20	5.151095e-03	-1.287774e-04	1.685891e-02	3.024651e-04	5.920525e-03	6.178079e-03	3.024651e-04	-3.024651e-04	1.943445e-02	-1.428336e-02
8             	1.244001e-02	-3.057721e-20	5.255270e-03	-1.313818e-04	1.728132e-02	3.110004e-04	6.088626e-03	6.351389e-03	3.110004e-04	-3.110004e-04	1.990896e-02	-1.465369e-02
9             	1.273025e-02	-3.230440e-20	5.292457e-03	-1.323114e-04	1.772007e-02	3.182564e-04	6.232816e-03	6.497439e-03	3.182564e-04	-3.182564e-04	2.036630e-02	-1.507384e-02
10            	1.291652e-02	-2.855706e-20	5.145442e-03	-1.286361e-04	1.827215e-02	3.229130e-04	6.329624e-03	6.586896e-03	3.229130e-04	-3.229130e-04	2.084487e-02	-1.569943e-02
11            	1.305538e-02	-2.449125e-20	4.791856e-03	-1.197964e-04	1.912196e-02	3.263844e-04	6.407892e-03	6.647484e-03	3.263844e-04	-3.263844e-04	2.151789e-02	-1.672603e-02
12            	1.317854e-02	-2.054363e-20	4.175888e-03	-1.043972e-04	2.046773e-02	3.294636e-04	6.484874e-03	6.693669e-03	3.294636e-04	-3.294636e-04	2.255567e-02	-1.837978e-02
13            	1.323836e-02	-1.889279e-20	3.336112e-03	-8.340279e-05	2.217571e-02	3.309591e-04	6.535779e-03	6.702584e-03	3.309591e-04	-3.309591e-04	2.384376e-02	-2.050765e-02
14            	1.310683e-02	-2.001785e-20	2.407071e-03	-6.017677e-05	2.373175e-02	3.276707e-04	6.493237e-03	6.613591e-03	3.276707e-04	-3.276707e-04	2.493529e-02	-2.252822e-02
15            	1.282965e-02	-2.430032e-20	1.558692e-03	-3.896731e-05	2.489483e-02	3.207413e-04	6.375858e-03	6.453793e-03	3.207413e-04	-3.207413e-04	2.567417e-02	-2.411548e-02
16            	1.247677e-02	-2.884088e-20	9.337601e-04	-2.334400e-05	2.550731e-02	3.119192e-04	6.215040e-03	6.261728e-03	3.119192e-04	-3.119192e-04	2.597419e-02	-2.504043e-02
17            	1.216027e-02	-3.150766e-20	6.205556e-04	-1.551389e-05	2.559047e-02	3.040068e-04	6.064622e-03	6.095650e-03	3.040068e-04	-3.040068e-04	2.590075e-02	-2.528019e-02
18            	1.205092e-02	-3.330277e-20	3.884333e-04	-9.710833e-06	2.596114e-02	3.012729e-04	6.015748e-03	6.035170e-03	3.012729e-04	-3.012729e-04	2.615536e-02	-2.576693e-02
19            	1.200908e-02	-3.458593e-20	1.108732e-04	-2.771829e-06	2.655529e-02	3.002270e-04	6.001769e-03	6.007313e-03	3.002270e-04	-3.002270e-04	2.661073e-02	-2.649986e-02
20            	1.199313e-02	-3.642509e-20	-2.193968e-04	5.484919e-06	2.728217e-02	2.998282e-04	6.002050e-03	5.991080e-03	2.998282e-04	-2.998282e-04	2.717247e-02	-2.739187e-02
21            	1.204309e-02	-3.896861e-20	-6.022775e-04	1.505694e-05	2.821121e-02	3.010771e-04	6.036600e-03	6.006486e-03	3.010771e-04	-3.010771e-04	2.791008e-02	-2.851235e-02
22            	1.207991e-02	-4.069495e-20	-7.783805e-04	1.945951e-05	2.866194e-02	3.019977e-04	6.059413e-03	6.020494e-03	3.019977e-04	-3.019977e-04	2.827275e-02	-2.905113e-02
23            	1.209931e-02	-4.041777e-20	-6.301814e-04	1.575453e-05	2.839610e-02	3.024827e-04	6.065408e-03	6.033898e-03	3.024827e-04	-3.024827e-04	2.808101e-02	-2.871119e-02
24            	1.210136e-02	-3.757743e-20	-3.317243e-05	8.293108e-07	2.718420e-02	3.025339e-04	6.051508e-03	6.049849e-03	3.025339e-04	-3.025339e-04	2.716761e-02	-2.720079e-02
25            	1.209225e-02	-3.187929e-20	9.526008e-04	-2.381502e-05	2.517016e-02	3.023063e-04	6.022312e-03	6.069942e-03	3.023063e-04	-3.023063e-04	2.564646e-02	-2.469386e-02
26            	1.212637e-02	-2.709039e-20	2.207119e-03	-5.517798e-05	2.273327e-02	3.031592e-04	6.008006e-03	6.118362e-03	3.031592e-04	-3.031592e-04	2.383683e-02	-2.162971e-02
27            	1.217118e-02	-2.131391e-20	3.525622e-03	-8.814056e-05	2.020894e-02	3.042796e-04	5.997450e-03	6.173732e-03	3.042796e-04	-3.042796e-04	2.197175e-02	-1.844613e-02
28            	1.231740e-02	-1.779072e-20	4.816989e-03	-1.204247e-04	1.794547e-02	3.079349e-04	6.038274e-03	6.279123e-03	3.079349e-04	-3.079349e-04	2.035396e-02	-1.553697e-02
29            	1.256740e-02	-1.572691e-20	5.998214e-03	-1.499553e-04	1.613336e-02	3.141851e-04	6.133747e-03	6.433658e-03	3.141851e-04	-3.141851e-04	1.913247e-02	-1.313425e-02
30            	1.267354e-02	-1.350174e-20	6.712350e-03	-1.678088e-04	1.492913e-02	3.168386e-04	6.168963e-03	6.504581e-03	3.168386e-04	-3.168386e-04	1.828531e-02	-1.157296e-02
31            	1.268403e-02	-1.209183e-20	6.996756e-03	-1.749189e-04	1.435307e-02	3.171007e-04	6.167095e-03	6.516933e-03	3.171007e-04	-3.171007e-04	1.785144e-02	-1.085469e-02
32            	1.265678e-02	-9.911665e-21	6.846046e-03	-1.711511e-04	1.452666e-02	3.164194e-04	6.157237e-03	6.499539e-03	3.164194e-04	-3.164194e-04	1.794968e-02	-1.110364e-02
33            	1.257468e-02	-7.859499e-21	6.384607e-03	-1.596152e-04	1.516797e-02	3.143670e-04	6.127725e-03	6.446955e-03	3.143670e-04	-3.143670e-04	1.836027e-02	-1.197567e-02
34            	1.246982e-02	-9.352262e-21	5.522493e-03	-1.380623e-04	1.652432e-02	3.117455e-04	6.096848e-03	6.372973e-03	3.117455e-04	-3.117455e-04	1.928557e-02	-1.376307e-02
35            	1.241331e-02	-1.186358e-20	4.226510e-03	-1.056627e-04	1.882829e-02	3.103328e-04	6.100992e-03	6.312318e-03	3.103328e-04	-3.103328e-04	2.094154e-02	-1.671503e-02
36            	1.239131e-02	-1.723568e-20	2.481334e-03	-6.203336e-05	2.208969e-02	3.097829e-04	6.133624e-03	6.257691e-03	3.097829e-04	-3.097829e-04	2.333035e-02	-2.084902e-02
37            	1.243872e-02	-2.409588e-20	4.368149e-04	-1.092037e-05	2.611169e-02	3.109679e-04	6.208437e-03	6.230278e-03	3.109679e-04	-3.109679e-04	2.633010e-02	-2.589328e-02
38            	1.249752e-02	-3.522564e-20	-1.556369e-03	3.890924e-05	3.009562e-02	3.124380e-04	6.287670e-03	6.209851e-03	3.124380e-04	-3.124380e-04	2.931743e-02	-3.087380e-02
39            	1.257308e-02	-4.665587e-20	-3.026161e-03	7.565404e-05	3.317510e-02	3.143270e-04	6.362194e-03	6.210886e-03	3.143270e-04	-3.143270e-04	3.166202e-02	-3.468818e-02
40            	1.263051e-02	-5.384448e-20	-4.262818e-03	1.065704e-04	3.582901e-02	3.157628e-04	6.421827e-03	6.208686e-03	3.157628e-04	-3.157628e-04	3.369760e-02	-3.796042e-02
41            	1.276964e-02	-5.968613e-20	-4.610734e-03	1.152683e-04	3.697171e-02	3.192411e-04	6.500091e-03	6.269554e-03	3.192411e-04	-3.192411e-04	3.466634e-02	-3.927708e-02
42            	1.266305e-02	-5.990638e-20	-3.872546e-03	9.681366e-05	3.547026e-02	3.165762e-04	6.428339e-03	6.234711e-03	3.165762e-04	-3.165762e-04	3.353398e-02	-3.740653e-02
43            	1.253091e-02	-5.834534e-20	-1.862127e-03	4.655319e-05	3.139918e-02	3.132727e-04	6.312008e-03	6.218901e-03	3.132727e-04	-3.132727e-04	3.046811e-02	-3.233024e-02
44            	1.251847e-02	-5.017621e-20	7.396372e-04	-1.849093e-05	2.643182e-02	3.129618e-04	6.240745e-03	6.277727e-03	3.129618e-04	-3.129618e-04	2.680164e-02	-2.606200e-02
45            	1.252179e-02	-3.590020e-20	3.360950e-03	-8.402375e-05	2.143621e-02	3.130446e-04	6.176869e-03	6.344917e-03	3.130446e-04	-3.130446e-04	2.311669e-02	-1.975574e-02
46            	1.249887e-02	-2.727672e-20	5.203731e-03	-1.300933e-04	1.782192e-02	3.124718e-04	6.119344e-03	6.379530e-03	3.124718e-04	-3.124718e-04	2.042378e-02	-1.522005e-02
47            	1.271051e-02	-2.402643e-20	6.669962e-03	-1.667490e-04	1.538668e-02	3.177628e-04	6.188507e-03	6.522005e-03	3.177628e-04	-3.177628e-04	1.872166e-02	-1.205170e-02
48            	1.266937e-02	-1.863678e-20	7.218230e-03	-1.804557e-04	1.410315e-02	3.167343e-04	6.154230e-03	6.515141e-03	3.167343e-04	-3.167343e-04	1.771226e-02	-1.049403e-02
49            	1.272683e-02	-1.351190e-20	7.162181e-03	-1.790545e-04	1.416512e-02	3.181707e-04	6.184359e-03	6.542469e-03	3.181707e-04	-3.181707e-04	1.774621e-02	-1.058403e-02
50            	1.271714e-02	-9.712768e-21	6.652689e-03	-1.663172e-04	1.495484e-02	3.179285e-04	6.192253e-03	6.524887e-03	3.179285e-04	-3.179285e-04	1.828118e-02	-1.162849e-02
51            	1.269979e-02	-1.152214e-20	5.258810e-03	-1.314702e-04	1.744753e-02	3.174946e-04	6.218423e-03	6.481363e-03	3.174946e-04	-3.174946e-04	2.007693e-02	-1.481812e-02
52            	1.276273e-02	-1.335059e-20	3.365912e-03	-8.414781e-05	2.115682e-02	3.190681e-04	6.297215e-03	6.465511e-03	3.190681e-04	-3.190681e-04	2.283978e-02	-1.947386e-02
53            	1.276730e-02	-2.236683e-20	1.243091e-03	-3.107727e-05	2.525181e-02	3.191825e-04	6.352572e-03	6.414726e-03	3.191825e-04	-3.191825e-04	2.587335e-02	-2.463026e-02
54            	1.274424e-02	-3.265062e-20	-7.203346e-04	1.800837e-05	2.902847e-02	3.186061e-04	6.390131e-03	6.354114e-03	3.186061e-04	-3.186061e-04	2.866831e-02	-2.938864e-02
55            	1.279952e-02	-4.313644e-20	-2.177722e-03	5.444304e-05	3.208440e-02	3.199879e-04	6.454201e-03	6.345315e-03	3.199879e-04	-3.199879e-04	3.099554e-02	-3.317326e-02
56            	1.292557e-02	-5.157231e-20	-3.032964e-03	7.582411e-05	3.420248e-02	3.231392e-04	6.538609e-03	6.386960e-03	3.231392e-04	-3.231392e-04	3.268599e-02	-3.571896e-02
57            	1.286890e-02	-5.682398e-20	-3.047252e-03	7.618129e-05	3.429545e-02	3.217224e-04	6.510630e-03	6.358267e-03	3.217224e-04	-3.217224e-04	3.277183e-02	-3.581908e-02
58            	1.266324e-02	-5.796162e-20	-1.927410e-03	4.818526e-05	3.181534e-02	3.165811e-04	6.379807e-03	6.283437e-03	3.165811e-04	-3.165811e-04	3.085163e-02	-3.277904e-02
59            	1.247703e-02	-5.071371e-20	9.159149e-05	-2.289787e-06	2.758257e-02	3.119257e-04	6.236224e-03	6.240804e-03	3.119257e-04	-3.119257e-04	2.762836e-02	-2.753677e-02
60            	1.242150e-02	-3.811139e-20	2.261449e-03	-5.653623e-05	2.330274e-02	3.105376e-04	6.154216e-03	6.267288e-03	3.105376e-04	-3.105376e-04	2.443346e-02	-2.217201e-02
61            	1.242222e-02	-2.754880e-20	4.145219e-03	-1.036305e-04	1.966102e-02	3.105554e-04	6.107478e-03	6.314739e-03	3.105554e-04	-3.105554e-04	2.173363e-02	-1.758841e-02
62            	1.245954e-02	-2.394581e-20	5.356109e-03	-1.339027e-04	1.735138e-02	3.114884e-04	6.095865e-03	6.363671e-03	3.114884e-04	-3.114884e-04	2.002943e-02	-1.467332e-02
63            	1.252698e-02	-2.143253e-20	6.192190e-03	-1.548047e-04	1.578539e-02	3.131746e-04	6.108686e-03	6.418296e-03	3.131746e-04	-3.131746e-04	1.888148e-02	-1.268929e-02
64            	1.257320e-02	-1.701212e-20	6.369253e-03	-1.592313e-04	1.540569e-02	3.143299e-04	6.127367e-03	6.445829e-03	3.143299e-04	-3.143299e-04	1.859032e-02	-1.222107e-02
65            	1.262952e-02	-1.197719e-20	5.964195e-03	-1.491049e-04	1.615558e-02	3.157379e-04	6.165654e-03	6.463864e-03	3.157379e-04	-3.157379e-04	1.913767e-02	-1.317348e-02
66            	1.265447e-02	-1.106224e-20	5.062022e-03	-1.265506e-04	1.782301e-02	3.163619e-04	6.200687e-03	6.453788e-03	3.163619e-04	-3.163619e-04	2.035402e-02	-1.529199e-02
67            	1.264934e-02	-1.294086e-20	3.368298e-03	-8.420746e-05	2.100262e-02	3.162335e-04	6.240463e-03	6.408878e-03	3.162335e-04	-3.162335e-04	2.268676e-02	-1.931847e-02
68            	1.262632e-02	-2.046917e-20	1.441071e-03	-3.602677e-05	2.465212e-02	3.156580e-04	6.277133e-03	6.349186e-03	3.156580e-04	-3.156580e-04	2.537265e-02	-2.393158e-02
69            	1.259862e-02	-3.021771e-20	-3.529716e-04	8.824291e-06	2.808174e-02	3.149654e-04	6.308132e-03	6.290483e-03	3.149654e-04	-3.149654e-04	2.790526e-02	-2.825823e-02
70            	1.266001e-02	-3.876266e-20	-1.712166e-03	4.280416e-05	3.094527e-02	3.165001e-04	6.372807e-03	6.287198e-03	3.165001e-04	-3.165001e-04	3.008919e-02	-3.180135e-02
71            	1.281987e-02	-4.651626e-20	-2.502156e-03	6.255390e-05	3.299351e-02	3.204967e-04	6.472488e-03	6.347381e-03	3.204967e-04	-3.204967e-04	3.174243e-02	-3.424459e-02
72            	1.280835e-02	-5.179478e-20	-2.518280e-03	6.295700e-05	3.317168e-02	3.202087e-04	6.467131e-03	6.341217e-03	3.202087e-04	-3.202087e-04	3.191254e-02	-3.443082e-02
73            	1.263602e-02	-5.294138e-20	-1.450679e-03	3.626697e-05	3.084331e-02	3.159004e-04	6.354276e-03	6.281742e-03	3.159004e-04	-3.159004e-04	3.011797e-02	-3.156865e-02
74            	1.248544e-02	-4.634779e-20	4.821637e-04	-1.205409e-05	2.683244e-02	3.121361e-04	6.230668e-03	6.254776e-03	3.121361e-04	-3.121361e-04	2.707352e-02	-2.659136e-02
75            	1.244958e-02	-3.420062e-20	2.603154e-03	-6.507885e-05	2.268284e-02	3.112395e-04	6.159711e-03	6.289868e-03	3.112395e-04	-3.112395e-04	2.398441e-02	-2.138126e-02
76            	1.245877e-02	-2.499041e-20	4.480148e-03	-1.120037e-04	1.906976e-02	3.114693e-04	6.117382e-03	6.341390e-03	3.114693e-04	-3.114693e-04	2.130984e-02	-1.682969e-02
77            	1.249739e-02	-2.336181e-20	5.656653e-03	-1.414163e-04	1.682495e-02	3.124347e-04	6.107278e-03	6.390110e-03	3.124347e-04	-3.124347e-04	1.965327e-02	-1.399662e-02
78            	1.255701e-02	-2.118438e-20	6.423284e-03	-1.605821e-04	1.537660e-02	3.139252e-04	6.117921e-03	6.439085e-03	3.139252e-04	-3.139252e-04	1.858824e-02	-1.216495e-02
79            	1.259454e-02	-1.666515e-20	6.477386e-03	-1.619347e-04	1.522038e-02	3.148636e-04	6.135337e-03	6.459207e-03	3.148636e-04	-3.148636e-04	1.845908e-02	-1.198169e-02
80            	1.264179e-02	-1.214239e-20	5.983012e-03	-1.495753e-04	1.613355e-02	3.160449e-04	6.171322e-03	6.470472e-03	3.160449e-04	-3.160449e-04	1.912505e-02	-1.314204e-02
81            	1.263351e-02	-1.104223e-20	4.906723e-03	-1.226681e-04	1.807567e-02	3.158379e-04	6.194089e-03	6.439425e-03	3.158379e-04	-3.158379e-04	2.052904e-02	-1.562231e-02
82            	1.262780e-02	-1.330968e-20	3.328624e-03	-8.321559e-05	2.104217e-02	3.156950e-04	6.230685e-03	6.397116e-03	3.156950e-04	-3.156950e-04	2.270648e-02	-1.937786e-02
83            	1.259212e-02	-2.055213e-20	1.477035e-03	-3.692586e-05	2.452220e-02	3.148030e-04	6.259135e-03	6.332986e-03	3.148030e-04	-3.148030e-04	2.526072e-02	-2.378368e-02
84            	1.256294e-02	-2.970970e-20	-2.599999e-04	6.499997e-06	2.783999e-02	3.140735e-04	6.287970e-03	6.274970e-03	3.140735e-04	-3.140735e-04	2.770999e-02	-2.796999e-02
85            	1.263297e-02	-3.834389e-20	-1.598483e-03	3.996206e-05	3.068391e-02	3.158243e-04	6.356449e-03	6.276524e-03	3.158243e-04	-3.158243e-04	2.988466e-02	-3.148315e-02
86            	1.280386e-02	-4.592024e-20	-2.387005e-03	5.967513e-05	3.275335e-02	3.200964e-04	6.461603e-03	6.342252e-03	3.200964e-04	-3.200964e-04	3.155984e-02	-3.394685e-02
87            	1.279134e-02	-5.164322e-20	-2.377657e-03	5.944142e-05	3.287291e-02	3.197835e-04	6.455111e-03	6.336229e-03	3.197835e-04	-3.197835e-04	3.168408e-02	-3.406173e-02
88            	1.261999e-02	-5.155340e-20	-1.275701e-03	3.189251e-05	3.047603e-02	3.154997e-04	6.341886e-03	6.278101e-03	3.154997e-04	-3.154997e-04	2.983818e-02	-3.111388e-02
89            	1.247735e-02	-4.515589e-20	7.240375e-04	-1.810094e-05	2.634659e-02	3.119337e-04	6.220574e-03	6.256776e-03	3.119337e-04	-3.119337e-04	2.670860e-02	-2.598457e-02
90            	1.245154e-02	-3.303362e-20	2.913155e-03	-7.282888e-05	2.208513e-02	3.112885e-04	6.152941e-03	6.298599e-03	3.112885e-04	-3.112885e-04	2.354170e-02	-2.062855e-02
91            	1.238585e-02	-2.531794e-20	4.472765e-03	-1.118191e-04	1.891584e-02	3.096463e-04	6.081107e-03	6.304745e-03	3.096463e-04	-3.096463e-04	2.115223e-02	-1.667946e-02
92            	1.260251e-02	-2.388092e-20	5.924974e-03	-1.481243e-04	1.652682e-02	3.150627e-04	6.153130e-03	6.449378e-03	3.150627e-04	-3.150627e-04	1.948931e-02	-1.356433e-02
93            	1.254997e-02	-2.036876e-20	6.543659e-03	-1.635915e-04	1.511805e-02	3.137493e-04	6.111395e-03	6.438577e-03	3.137493e-04	-3.137493e-04	1.838988e-02	-1.184622e-02
94            	1.260106e-02	-1.529677e-20	6.498403e-03	-1.624601e-04	1.517869e-02	3.150266e-04	6.138071e-03	6.462991e-03	3.150266e-04	-3.150266e-04	1.842789e-02	-1.192949e-02
95            	1.263347e-02	-1.113574e-20	5.926121e-03	-1.481530e-04	1.620989e-02	3.158367e-04	6.168582e-03	6.464888e-03	3.158367e-04	-3.158367e-04	1.917295e-02	-1.324683e-02
96            	1.265635e-02	-1.064041e-20	4.920425e-03	-1.230106e-04	1.808580e-02	3.164087e-04	6.205163e-03	6.451184e-03	3.164087e-04	-3.164087e-04	2.054601e-02	-1.562558e-02
97            	1.264265e-02	-1.316768e-20	3.198977e-03	-7.997442e-05	2.131663e-02	3.160664e-04	6.241353e-03	6.401302e-03	3.160664e-04	-3.160664e-04	2.291612e-02	-1.971715e-02
98            	1.261238e-02	-2.088647e-20	1.293642e-03	-3.234105e-05	2.491558e-02	3.153094e-04	6.273847e-03	6.338529e-03	3.153094e-04	-3.153094e-04	2.556240e-02	-2.426876e-02
99            	1.258889e-02	-3.052487e-20	-4.033080e-04	1.008270e-05	2.817354e-02	3.147224e-04	6.304530e-03	6.284365e-03	3.147224e-04	-3.147224e-04	2.797189e-02	-2.837520e-02
100           	1.267660e-02	-3.904057e-20	-1.696420e-03	4.241051e-05	3.098099e-02	3.169150e-04	6.380711e-03	6.295890e-03	3.169150e-04	-3.169150e-04	3.013278e-02	-3.182920e-02
101           	1.282502e-02	-4.644260e-20	-2.405353e-03	6.013383e-05	3.284897e-02	3.206255e-04	6.472643e-03	6.352375e-03	3.206255e-04	-3.206255e-04	3.164629e-02	-3.405165e-02
102           	1.276096e-02	-5.169862e-20	-2.310392e-03	5.775980e-05	3.268375e-02	3.190241e-04	6.438242e-03	6.322722e-03	3.190241e-04	-3.190241e-04	3.152856e-02	-3.383895e-02
103           	1.258999e-02	-5.114108e-20	-1.122462e-03	2.806154e-05	3.011532e-02	3.147498e-04	6.323057e-03	6.266933e-03	3.147498e-04	-3.147498e-04	2.955409e-02	-3.067655e-02
104           	1.245638e-02	-4.457000e-20	8.854010e-04	-2.213503e-05	2.598946e-02	3.114094e-04	6.206054e-03	6.250324e-03	3.114094e-04	-3.114094e-04	2.643216e-02	-2.554676e-02
105           	1.242612e-02	-3.253497e-20	3.010370e-03	-7.525924e-05	2.184192e-02	3.106531e-04	6.137802e-03	6.288320e-03	3.106531e-04	-3.106531e-04	2.334710e-02	-2.033673e-02
106           	1.244914e-02	-2.423767e-20	4.841850e-03	-1.210463e-04	1.833425e-02	3.112286e-04	6.103526e-03	6.345618e-03	3.112286e-04	-3.112286e-04	2.075518e-02	-1.591333e-02
107           	1.249419e-02	-2.313601e-20	5.915150e-03	-1.478788e-04	1.629861e-02	3.123548e-04	6.099217e-03	6.394975e-03	3.123548e-04	-3.123548e-04	1.925619e-02	-1.334104e-02
108           	1.252022e-02	-1.990410e-20	6.538272e-03	-1.634568e-04	1.504713e-02	3.130055e-04	6.096652e-03	6.423566e-03	3.130055e-04	-3.130055e-04	1.831627e-02	-1.177800e-02
109           	1.259364e-02	-1.509003e-20	6.513785e-03	-1.628446e-04	1.512131e-02	3.148410e-04	6.133975e-03	6.459664e-03	3.148410e-04	-3.148410e-04	1.837820e-02	-1.186442e-02
110           	1.263236e-02	-1.129042e-20	5.916447e-03	-1.479112e-04	1.621576e-02	3.158089e-04	6.168267e-03	6.464089e-03	3.158089e-04	-3.158089e-04	1.917399e-02	-1.325754e-02
111           	1.263281e-02	-1.093710e-20	4.747722e-03	-1.186930e-04	1.836283e-02	3.158202e-04	6.197711e-03	6.435097e-03	3.158202e-04	-3.158202e-04	2.073669e-02	-1.598897e-02
112           	1.263158e-02	-1.376640e-20	3.116060e-03	-7.790149e-05	2.145242e-02	3.157895e-04	6.237888e-03	6.393691e-03	3.157895e-04	-3.157895e-04	2.301045e-02	-1.989439e-02
113           	1.259226e-02	-2.130603e-20	1.267887e-03	-3.169718e-05	2.492636e-02	3.148066e-04	6.264434e-03	6.327829e-03	3.148066e-04	-3.148066e-04	2.556030e-02	-2.429241e-02
114           	1.256983e-02	-3.058140e-20	-3.898396e-04	9.745990e-06	2.811377e-02	3.142457e-04	6.294661e-03	6.275169e-03	3.142457e-04	-3.142457e-04	2.791885e-02	-2.830869e-02
115           	1.265369e-02	-3.900152e-20	-1.652829e-03	4.132073e-05	3.085741e-02	3.163423e-04	6.368167e-03	6.285526e-03	3.163423e-04	-3.163423e-04	3.003100e-02	-3.168383e-02
116           	1.279537e-02	-4.606040e-20	-2.340045e-03	5.850112e-05	3.266791e-02	3.198843e-04	6.456187e-03	6.339185e-03	3.198843e-04	-3.198843e-04	3.149789e-02	-3.383793e-02
117           	1.273095e-02	-5.127412e-20	-2.206230e-03	5.515574e-05	3.242359e-02	3.182737e-04	6.420629e-03	6.310318e-03	3.182737e-04	-3.182737e-04	3.132047e-02	-3.352670e-02
118           	1.256858e-02	-5.021967e-20	-9.771743e-04	2.442936e-05	2.978993e-02	3.142144e-04	6.308718e-03	6.259859e-03	3.142144e-04	-3.142144e-04	2.930134e-02	-3.027851e-02
119           	1.244651e-02	-4.342220e-20	1.047054e-03	-2.617635e-05	2.565389e-02	3.111627e-04	6.197078e-03	6.249430e-03	3.111627e-04	-3.111627e-04	2.617742e-02	-2.513036e-02
120           	1.242063e-02	-3.140781e-20	3.161706e-03	-7.904266e-05	2.153342e-02	3.105159e-04	6.131275e-03	6.289360e-03	3.105159e-04	-3.105159e-04	2.311427e-02	-1.995257e-02
121           	1.245069e-02	-2.381331e-20	4.945674e-03	-1.236418e-04	1.812922e-02	3.112672e-04	6.101702e-03	6.348985e-03	3.112672e-04	-3.112672e-04	2.060206e-02	-1.565638e-02
122           	1.248882e-02	-2.265936e-20	5.960795e-03	-1.490199e-04	1.618852e-02	3.122206e-04	6.095392e-03	6.393431e-03	3.122206e-04	-3.122206e-04	1.916892e-02	-1.320813e-02
123           	1.250751e-02	-1.963834e-20	6.519414e-03	-1.629853e-04	1.504286e-02	3.126877e-04	6.090769e-03	6.416739e-03	3.126877e-04	-3.126877e-04	1.830257e-02	-1.178315e-02
124           	1.259173e-02	-1.489300e-20	6.442986e-03	-1.610747e-04	1.524116e-02	3.147933e-04	6.134792e-03	6.456941e-03	3.147933e-04	-3.147933e-04	1.846265e-02	-1.201966e-02
125           	1.262702e-02	-1.139063e-20	5.802119e-03	-1.450530e-04	1.641615e-02	3.156756e-04	6.168459e-03	6.458565e-03	3.156756e-04	-3.156756e-04	1.931721e-02	-1.351509e-02
126           	1.262043e-02	-1.107916e-20	4.606207e-03	-1.151552e-04	1.860591e-02	3.155108e-04	6.195061e-03	6.425371e-03	3.155108e-04	-3.155108e-04	2.090901e-02	-1.630280e-02
127           	1.261582e-02	-1.434647e-20	2.969226e-03	-7.423064e-05	2.170479e-02	3.153955e-04	6.233679e-03	6.382141e-03	3.153955e-04	-3.153955e-04	2.318940e-02	-2.022017e-02
128           	1.257373e-02	-2.170326e-20	1.142892e-03	-2.857230e-05	2.513453e-02	3.143433e-04	6.258294e-03	6.315439e-03	3.143433e-04	-3.143433e-04	2.570598e-02	-2.456309e-02
129           	1.255402e-02	-3.106136e-20	-4.587580e-04	1.146895e-05	2.822359e-02	3.138505e-04	6.288478e-03	6.265540e-03	3.138505e-04	-3.138505e-04	2.799421e-02	-2.845297e-02
130           	1.265607e-02	-3.905893e-20	-1.670231e-03	4.175577e-05	3.091428e-02	3.164019e-04	6.369793e-03	6.286281e-03	3.164019e-04	-3.164019e-04	3.007916e-02	-3.174939e-02
131           	1.279640e-02	-4.574486e-20	-2.289196e-03	5.722990e-05	3.259156e-02	3.199101e-04	6.455431e-03	6.340971e-03	3.199101e-04	-3.199101e-04	3.144697e-02	-3.373616e-02
132           	1.271490e-02	-5.113657e-20	-2.061186e-03	5.152965e-05	3.212110e-02	3.178724e-04	6.408978e-03	6.305918e-03	3.178724e-04	-3.178724e-04	3.109051e-02	-3.315170e-02
133           	1.255108e-02	-4.908548e-20	-7.347883e-04	1.836971e-05	2.928846e-02	3.137769e-04	6.293908e-03	6.257169e-03	3.137769e-04	-3.137769e-04	2.892106e-02	-2.965585e-02
134           	1.243864e-02	-4.223738e-20	1.307014e-03	-3.267535e-05	2.513561e-02	3.109660e-04	6.186645e-03	6.251996e-03	3.109660e-04	-3.109660e-04	2.578912e-02	-2.448210e-02
135           	1.240943e-02	-3.014220e-20	3.373904e-03	-8.434761e-05	2.109739e-02	3.102357e-04	6.120367e-03	6.289063e-03	3.102357e-04	-3.102357e-04	2.278434e-02	-1.941044e-02
136           	1.245358e-02	-2.362142e-20	5.120253e-03	-1.280063e-04	1.778878e-02	3.113396e-04	6.098785e-03	6.354798e-03	3.113396e-04	-3.113396e-04	2.034890e-02	-1.522865e-02
137           	1.256722e-02	-2.288872e-20	6.231100e-03	-1.557775e-04	1.582426e-02	3.141804e-04	6.127830e-03	6.439385e-03	3.141804e-04	-3.141804e-04	1.893981e-02	-1.270871e-02
138           	1.254977e-02	-1.791786e-20	6.609396e-03	-1.652349e-04	1.494489e-02	3.137442e-04	6.109649e-03	6.440118e-03	3.137442e-04	-3.137442e-04	1.824959e-02	-1.164020e-02
139           	1.262198e-02	-1.340208e-20	6.424481e-03	-1.606120e-04	1.532117e-02	3.155494e-04	6.150376e-03	6.471600e-03	3.155494e-04	-3.155494e-04	1.853341e-02	-1.210893e-02
140           	1.263599e-02	-1.052230e-20	5.705188e-03	-1.426297e-04	1.660634e-02	3.158997e-04	6.175364e-03	6.460624e-03	3.158997e-04	-3.158997e-04	1.945893e-02	-1.375375e-02
141           	1.263465e-02	-1.139076e-20	4.440222e-03	-1.110056e-04	1.894553e-02	3.158663e-04	6.206320e-03	6.428331e-03	3.158663e-04	-3.158663e-04	2.116564e-02	-1.672542e-02
142           	1.262086e-02	-1.530949e-20	2.767122e-03	-6.917806e-05	2.210207e-02	3.155215e-04	6.241251e-03	6.379607e-03	3.155215e-04	-3.155215e-04	2.348563e-02	-2.071851e-02
143           	1.257618e-02	-2.274588e-20	9.365426e-04	-2.341357e-05	2.554013e-02	3.144044e-04	6.264675e-03	6.311502e-03	3.144044e-04	-3.144044e-04	2.600840e-02	-2.507186e-02
144           	1.255545e-02	-3.244596e-20	-6.229817e-04	1.557454e-05	2.855522e-02	3.138862e-04	6.293298e-03	6.262149e-03	3.138862e-04	-3.138862e-04	2.824373e-02	-2.886671e-02
145           	1.267837e-02	-3.998035e-20	-1.770281e-03	4.425703e-05	3.117660e-02	3.169593e-04	6.383444e-03	6.294930e-03	3.169593e-04	-3.169593e-04	3.029146e-02	-3.206174e-02
146           	1.279243e-02	-4.632643e-20	-2.297071e-03	5.742677e-05	3.261966e-02	3.198108e-04	6.453642e-03	6.338789e-03	3.198108e-04	-3.198108e-04	3.147112e-02	-3.376819e-02
147           	1.269560e-02	-5.170292e-20	-1.948066e-03	4.870165e-05	3.187483e-02	3.173900e-04	6.396501e-03	6.299098e-03	3.173900e-04	-3.173900e-04	3.090080e-02	-3.284887e-02
148           	1.252696e-02	-4.815008e-20	-5.063984e-04	1.265996e-05	2.880089e-02	3.131740e-04	6.276140e-03	6.250820e-03	3.131740e-04	-3.131740e-04	2.854769e-02	-2.905409e-02
149           	1.243251e-02	-4.077933e-20	1.567728e-03	-3.919320e-05	2.462082e-02	3.108129e-04	6.177064e-03	6.255450e-03	3.108129e-04	-3.108129e-04	2.540469e-02	-2.383696e-02
150           	1.240765e-02	-2.862326e-20	3.601679e-03	-9.004198e-05	2.065264e-02	3.101913e-04	6.113783e-03	6.293867e-03	3.101913e-04	-3.101913e-04	2.245348e-02	-1.885180e-02
151           	1.241575e-02	-2.339945e-20	5.073059e-03	-1.268265e-04	1.778728e-02	3.103938e-04	6.081050e-03	6.334703e-03	3.103938e-04	-3.103938e-04	2.032381e-02	-1.525075e-02
152           	1.257148e-02	-2.200422e-20	6.213563e-03	-1.553391e-04	1.585642e-02	3.142871e-04	6.130403e-03	6.441081e-03	3.142871e-04	-3.142871e-04	1.896320e-02	-1.274964e-02
153           	1.253524e-02	-1.861663e-20	6.565430e-03	-1.641357e-04	1.498640e-02	3.133809e-04	6.103482e-03	6.431754e-03	3.133809e-04	-3.133809e-04	1.826912e-02	-1.170369e-02
154           	1.261870e-02	-1.367753e-20	6.326848e-03	-1.581712e-04	1.549126e-02	3.154674e-04	6.151178e-03	6.467520e-03	3.154674e-04	-3.154674e-04	1.865468e-02	-1.232784e-02
155           	1.260833e-02	-1.084547e-20	5.551820e-03	-1.387955e-04	1.683449e-02	3.152083e-04	6.165370e-03	6.442961e-03	3.152083e-04	-3.152083e-04	1.961040e-02	-1.405858e-02
156           	1.260933e-02	-1.164476e-20	4.231621e-03	-1.057905e-04	1.929081e-02	3.152331e-04	6.198872e-03	6.410453e-03	3.152331e-04	-3.152331e-04	2.140662e-02	-1.717499e-02
157           	1.259177e-02	-1.619412e-20	2.525165e-03	-6.312912e-05	2.250675e-02	3.147943e-04	6.232758e-03	6.359016e-03	3.147943e-04	-3.147943e-04	2.376934e-02	-2.124417e-02
158           	1.255908e-02	-2.359082e-20	7.084345e-04	-1.771086e-05	2.594866e-02	3.139769e-04	6.261827e-03	6.297248e-03	3.139769e-04	-3.139769e-04	2.630288e-02	-2.559445e-02
159           	1.255806e-02	-3.348007e-20	-7.994955e-04	1.998739e-05	2.891702e-02	3.139514e-04	6.299016e-03	6.259042e-03	3.139514e-04	-3.139514e-04	2.851728e-02	-2.931677e-02
160           	1.270397e-02	-4.078317e-20	-1.857463e-03	4.643658e-05	3.142446e-02	3.175994e-04	6.398424e-03	6.305550e-03	3.175994e-04	-3.175994e-04	3.049573e-02	-3.235319e-02
161           	1.279746e-02	-4.718848e-20	-2.263795e-03	5.659487e-05	3.259074e-02	3.199365e-04	6.455324e-03	6.342134e-03	3.199365e-04	-3.199365e-04	3.145885e-02	-3.372264e-02
162           	1.267386e-02	-5.172417e-20	-1.714728e-03	4.286820e-05	3.139159e-02	3.168465e-04	6.379797e-03	6.294061e-03	3.168465e-04	-3.168465e-04	3.053423e-02	-3.224896e-02
163           	1.251195e-02	-4.654547e-20	-1.363632e-04	3.409081e-06	2.805909e-02	3.127986e-04	6.259382e-03	6.252563e-03	3.127986e-04	-3.127986e-04	2.799091e-02	-2.812728e-02
164           	1.243049e-02	-3.875471e-20	1.951316e-03	-4.878290e-05	2.387775e-02	3.107623e-04	6.166464e-03	6.264030e-03	3.107623e-04	-3.107623e-04	2.485341e-02	-2.290210e-02
165           	1.240246e-02	-2.694695e-20	3.914433e-03	-9.786083e-05	2.003441e-02	3.100615e-04	6.103369e-03	6.299091e-03	3.100615e-04	-3.100615e-04	2.199162e-02	-1.807719e-02
166           	1.243118e-02	-2.319276e-20	5.300882e-03	-1.325221e-04	1.737052e-02	3.107795e-04	6.083069e-03	6.348113e-03	3.107795e-04	-3.107795e-04	2.002096e-02	-1.472008e-02
167           	1.256394e-02	-2.158778e-20	6.315910e-03	-1.578977e-04	1.562342e-02	3.140984e-04	6.124071e-03	6.439866e-03	3.140984e-04	-3.140984e-04	1.878138e-02	-1.246547e-02