# Force coefficients
# dragDir     : (1.000000e+00 0.000000e+00 0.000000e+00)
# sideDir     : (0.000000e+00 0.000000e+00 -1.000000e+00)
# liftDir     : (0.000000e+00 1.000000e+00 0.000000e+00)
# rollAxis    : (1.000000e+00 0.000000e+00 0.000000e+00)
# pitchAxis   : (0.000000e+00 0.000000e+00 -1.000000e+00)
# yawAxis     : (0.000000e+00 1.000000e+00 0.000000e+00)
# magUInf     : 6.000000e-02
# lRef        : 1.000000e-01
# Aref        : 1.000000e-01
# CofR        : (0.000000e+00 0.000000e+00 0.000000e+00)
#
# Time        	Cd            	Cs            	Cl            	CmRoll        	CmPitch       	CmYaw         	Cd(f)         	Cd(r)         	Cs(f)         	Cs(r)         	Cl(f)         	Cl(r)         
1             	1.882366e-03	-4.101285e-20	-1.109212e-03	2.773030e-05	6.128890e-03	4.705915e-05	9.689133e-04	9.134527e-04	4.705915e-05	-4.705915e-05	5.574283e-03	-6.683496e-03
2             	9.855272e-03	2.290722e-20	-5.627024e-03	1.406756e-04	3.141697e-02	2.463818e-04	5.068312e-03	4.786960e-03	2.463818e-04	-2.463818e-04	2.860346e-02	-3.423049e-02
3             	1.133112e-02	8.053245e-20	-6.263103e-03	1.565776e-04	3.548652e-02	2.832781e-04	5.822139e-03	5.508984e-03	2.832781e-04	-2.832781e-04	3.235497e-02	-3.861808e-02
4             	1.127308e-02	3.965866e-20	-6.304882e-03	1.576221e-04	3.516908e-02	2.818269e-04	5.794160e-03	5.478916e-03	2.818269e-04	-2.818269e-04	3.201663e-02	-3.832152e-02
5             	1.122619e-02	-8.237938e-21	-6.322354e-03	1.580588e-04	3.493364e-02	2.806548e-04	5.771155e-03	5.455038e-03	2.806548e-04	-2.806548e-04	3.177246e-02	-3.809481e-02
6             	1.117296e-02	-2.641761e-20	-6.266979e-03	1.566745e-04	3.456396e-02	2.793240e-04	5.743155e-03	5.429806e-03	2.793240e-04	-2.793240e-04	3.143047e-02	-3.769745e-02
7             	1.126939e-02	-2.864737e-20	-6.257288e-03	1.564322e-04	3.466181e-02	2.817347e-04	5.791126e-03	5.478261e-03	2.817347e-04	-2.817347e-04	3.153317e-02	-3.779046e-02
8             	1.125710e-02	-2.407520e-20	-6.110073e-03	1.527518e-04	3.433058e-02	2.814275e-04	5.781303e-03	5.475799e-03	2.814275e-04	-2.814275e-04	3.127554e-02	-3.738561e-02
9             	1.110063e-02	-1.914681e-20	-5.804591e-03	1.451148e-04	3.346540e-02	2.775158e-04	5.695431e-03	5.405202e-03	2.775158e-04	-2.775158e-04	3.056311e-02	-3.636770e-02
10            	1.086048e-02	-1.700941e-20	-5.419781e-03	1.354945e-04	3.231351e-02	2.715119e-04	5.565733e-03	5.294744e-03	2.715119e-04	-2.715119e-04	2.960362e-02	-3.502340e-02
11            	1.052611e-02	-1.449188e-20	-4.964218e-03	1.241055e-04	3.083315e-02	2.631528e-04	5.387161e-03	5.138950e-03	2.631528e-04	-2.631528e-04	2.835104e-02	-3.331526e-02
12            	1.008359e-02	-1.295203e-20	-4.446854e-03	1.111713e-04	2.897867e-02	2.520897e-04	5.152965e-03	4.930623e-03	2.520897e-04	-2.520897e-04	2.675524e-02	-3.120210e-02
13            	9.609954e-03	-1.397124e-20	-3.948168e-03	9.870419e-05	2.705673e-02	2.402488e-04	4.903681e-03	4.706273e-03	2.402488e-04	-2.402488e-04	2.508264e-02	-2.903081e-02
14            	9.155086e-03	-1.254173e-20	-3.519614e-03	8.799034e-05	2.527640e-02	2.288772e-04	4.665534e-03	4.489553e-03	2.288772e-04	-2.288772e-04	2.351659e-02	-2.703620e-02
15            	8.907159e-03	-8.070860e-21	-3.264928e-03	8.162319e-05	2.426075e-02	2.226790e-04	4.535203e-03	4.371956e-03	2.226790e-04	-2.226790e-04	2.262828e-02	-2.589321e-02
16            	8.636083e-03	-1.058122e-20	-3.053229e-03	7.633072e-05	2.328891e-02	2.159021e-04	4.394372e-03	4.241711e-03	2.159021e-04	-2.159021e-04	2.176229e-02	-2.481552e-02
17            	8.376958e-03	-9.989678e-21	-2.876627e-03	7.191567e-05	2.241621e-02	2.094240e-04	4.260395e-03	4.116563e-03	2.094240e-04	-2.094240e-04	2.097790e-02	-2.385452e-02
18            	8.085081e-03	-9.115728e-21	-2.674543e-03	6.686357e-05	2.142960e-02	2.021270e-04	4.109404e-03	3.975677e-03	2.021270e-04	-2.021270e-04	2.009233e-02	-2.276687e-02
19            	7.762862e-03	-7.947215e-21	-2.444744e-03	6.111861e-05	2.031960e-02	1.940715e-04	3.942550e-03	3.820312e-03	1.940715e-04	-1.940715e-04	1.909722e-02	-2.154197e-02
20            	7.434538e-03	-6.577785e-21	-2.211449e-03	5.528623e-05	1.917867e-02	1.858634e-04	3.772555e-03	3.661983e-03	1.858634e-04	-1.858634e-04	1.807295e-02	-2.028440e-02
21            	7.201359e-03	-5.094370e-21	-2.062913e-03	5.157282e-05	1.838562e-02	1.800340e-04	3.652252e-03	3.549107e-03	1.800340e-04	-1.800340e-04	1.735417e-02	-1.941708e-02
22            	7.094515e-03	-3.775907e-21	-2.029335e-03	5.073339e-05	1.806848e-02	1.773629e-04	3.597991e-03	3.496524e-03	1.773629e-04	-1.773629e-04	1.705381e-02	-1.908315e-02
23            	7.073796e-03	-2.919798e-21	-2.082133e-03	5.205334e-05	1.807466e-02	1.768449e-04	3.588951e-03	3.484845e-03	1.768449e-04	-1.768449e-04	1.703359e-02	-1.911572e-02
24            	7.143147e-03	-2.189091e-21	-2.242545e-03	5.606363e-05	1.848007e-02	1.785787e-04	3.627637e-03	3.515510e-03	1.785787e-04	-1.785787e-04	1.735880e-02	-1.960134e-02
25            	7.234433e-03	4.906215e-22	-2.428926e-03	6.072314e-05	1.898270e-02	1.808608e-04	3.677940e-03	3.556493e-03	1.808608e-04	-1.808608e-04	1.776824e-02	-2.019716e-02
26            	7.388065e-03	8.926758e-22	-2.693290e-03	6.733224e-05	1.977866e-02	1.847016e-04	3.761365e-03	3.626700e-03	1.847016e-04	-1.847016e-04	1.843201e-02	-2.112530e-02
27            	7.574385e-03	1.264355e-21	-2.953428e-03	7.383569e-05	2.064171e-02	1.893596e-04	3.861028e-03	3.713357e-03	1.893596e-04	-1.893596e-04	1.916500e-02	-2.211843e-02
28            	7.795616e-03	3.965897e-22	-3.235140e-03	8.087849e-05	2.163039e-02	1.948904e-04	3.978686e-03	3.816929e-03	1.948904e-04	-1.948904e-04	2.001282e-02	-2.324796e-02
29            	8.059270e-03	-7.084595e-23	-3.532547e-03	8.831369e-05	2.275269e-02	2.014817e-04	4.117949e-03	3.941321e-03	2.014817e-04	-2.014817e-04	2.098642e-02	-2.451896e-02
30            	8.337573e-03	-1.132502e-21	-3.816956e-03	9.542391e-05	2.389497e-02	2.084393e-04	4.264211e-03	4.073363e-03	2.084393e-04	-2.084393e-04	2.198649e-02	-2.580345e-02
31            	8.602127e-03	-1.502942e-21	-4.058585e-03	1.014646e-04	2.494284e-02	2.150532e-04	4.402528e-03	4.199599e-03	2.150532e-04	-2.150532e-04	2.291355e-02	-2.697213e-02
32            	8.842925e-03	-2.341943e-21	-4.250127e-03	1.062532e-04	2.585586e-02	2.210731e-04	4.527716e-03	4.315209e-03	2.210731e-04	-2.210731e-04	2.373080e-02	-2.798092e-02
33            	9.036728e-03	-2.796513e-21	-4.377398e-03	1.094349e-04	2.655312e-02	2.259182e-04	4.627799e-03	4.408929e-03	2.259182e-04	-2.259182e-04	2.436443e-02	-2.874182e-02
34            	9.165891e-03	-2.936685e-21	-4.427244e-03	1.106811e-04	2.696920e-02	2.291473e-04	4.693627e-03	4.472264e-03	2.291473e-04	-2.291473e-04	2.475557e-02	-2.918282e-02
35            	9.229360e-03	-2.430527e-21	-4.388929e-03	1.097232e-04	2.707698e-02	2.307340e-04	4.724403e-03	4.504957e-03	2.307340e-04	-2.307340e-04	2.488252e-02	-2.927145e-02
36            	9.220067e-03	-1.527667e-21	-4.251283e-03	1.062821e-04	2.683323e-02	2.305017e-04	4.716316e-03	4.503752e-03	2.305017e-04	-2.305017e-04	2.470759e-02	-2.895887e-02
37            	9.120790e-03	-1.149002e-21	-4.015879e-03	1.003970e-04	2.619986e-02	2.280197e-04	4.660792e-03	4.459998e-03	2.280197e-04	-2.280197e-04	2.419192e-02	-2.820780e-02
38            	8.979329e-03	-4.845560e-22	-3.727096e-03	9.317740e-05	2.535917e-02	2.244832e-04	4.582842e-03	4.396487e-03	2.244832e-04	-2.244832e-04	2.349563e-02	-2.722272e-02
39            	8.814793e-03	1.132748e-21	-3.419392e-03	8.548481e-05	2.442469e-02	2.203698e-04	4.492881e-03	4.321912e-03	2.203698e-04	-2.203698e-04	2.271499e-02	-2.613438e-02
40            	8.596095e-03	2.132815e-22	-3.133189e-03	7.832973e-05	2.341223e-02	2.149024e-04	4.376377e-03	4.219718e-03	2.149024e-04	-2.149024e-04	2.184564e-02	-2.497882e-02
41            	8.349623e-03	-2.717320e-22	-2.911240e-03	7.278100e-05	2.245399e-02	2.087406e-04	4.247592e-03	4.102030e-03	2.087406e-04	-2.087406e-04	2.099837e-02	-2.390961e-02
42            	8.183388e-03	-4.779973e-22	-2.792800e-03	6.982000e-05	2.184702e-02	2.045847e-04	4.161514e-03	4.021874e-03	2.045847e-04	-2.045847e-04	2.045062e-02	-2.324342e-02
43            	8.032740e-03	-4.497900e-22	-2.724487e-03	6.811218e-05	2.134571e-02	2.008185e-04	4.084482e-03	3.948258e-03	2.008185e-04	-2.008185e-04	1.998347e-02	-2.270796e-02
44            	7.928736e-03	-8.621707e-22	-2.750139e-03	6.875349e-05	2.110263e-02	1.982184e-04	4.033121e-03	3.895614e-03	1.982184e-04	-1.982184e-04	1.972756e-02	-2.247770e-02
45            	7.935599e-03	-7.447139e-22	-2.907711e-03	7.269279e-05	2.133607e-02	1.983900e-04	4.040492e-03	3.895107e-03	1.983900e-04	-1.983900e-04	1.988222e-02	-2.278993e-02
46            	8.054035e-03	-1.636187e-21	-3.174501e-03	7.936252e-05	2.201944e-02	2.013509e-04	4.106380e-03	3.947655e-03	2.013509e-04	-2.013509e-04	2.043219e-02	-2.360669e-02
47            	8.294846e-03	-3.315656e-21	-3.537112e-03	8.842780e-05	2.316045e-02	2.073711e-04	4.235851e-03	4.058995e-03	2.073711e-04	-2.073711e-04	2.139190e-02	-2.492901e-02
48            	8.739291e-03	-5.131374e-21	-4.033476e-03	1.008369e-04	2.502548e-02	2.184823e-04	4.470482e-03	4.268809e-03	2.184823e-04	-2.184823e-04	2.300874e-02	-2.704222e-02
49            	9.239733e-03	-5.728080e-21	-4.491559e-03	1.122890e-04	2.698099e-02	2.309933e-04	4.732156e-03	4.507578e-03	2.309933e-04	-2.309933e-04	2.473521e-02	-2.922677e-02
50            	9.829671e-03	-7.867457e-21	-4.905511e-03	1.226378e-04	2.910856e-02	2.457418e-04	5.037473e-03	4.792198e-03	2.457418e-04	-2.457418e-04	2.665580e-02	-3.156131e-02
51            	1.028950e-02	-1.006201e-20	-5.099084e-03	1.274771e-04	3.058860e-02	2.572376e-04	5.272229e-03	5.017275e-03	2.572376e-04	-2.572376e-04	2.803905e-02	-3.313814e-02
52            	1.059042e-02	-1.045018e-20	-5.070686e-03	1.267671e-04	3.131538e-02	2.647604e-04	5.421975e-03	5.168441e-03	2.647604e-04	-2.647604e-04	2.878004e-02	-3.385073e-02
53            	1.057223e-02	-9.898748e-21	-4.803362e-03	1.200840e-04	3.083087e-02	2.643058e-04	5.406201e-03	5.166033e-03	2.643058e-04	-2.643058e-04	2.842918e-02	-3.323255e-02
54            	1.010565e-02	-7.964586e-21	-4.329251e-03	1.082313e-04	2.890496e-02	2.526412e-04	5.161056e-03	4.944593e-03	2.526412e-04	-2.526412e-04	2.674033e-02	-3.106958e-02
55            	9.638472e-03	-1.709627e-20	-3.974763e-03	9.936907e-05	2.723412e-02	2.409618e-04	4.918605e-03	4.719867e-03	2.409618e-04	-2.409618e-04	2.524674e-02	-2.922151e-02
56            	9.233029e-03	-1.684370e-20	-3.696765e-03	9.241913e-05	2.581269e-02	2.308257e-04	4.708933e-03	4.524095e-03	2.308257e-04	-2.308257e-04	2.396430e-02	-2.766107e-02
57            	8.873764e-03	-1.268138e-20	-3.492713e-03	8.731783e-05	2.459899e-02	2.218441e-04	4.524200e-03	4.349564e-03	2.218441e-04	-2.218441e-04	2.285263e-02	-2.634534e-02
58            	8.678758e-03	-9.036471e-21	-3.469285e-03	8.673213e-05	2.405872e-02	2.169689e-04	4.426111e-03	4.252647e-03	2.169689e-04	-2.169689e-04	2.232408e-02	-2.579336e-02
59            	8.628686e-03	-7.684417e-21	-3.595643e-03	8.989107e-05	2.409794e-02	2.157172e-04	4.404234e-03	4.224452e-03	2.157172e-04	-2.157172e-04	2.230012e-02	-2.589576e-02
60            	8.759509e-03	-8.254928e-21	-3.885283e-03	9.713208e-05	2.483668e-02	2.189877e-04	4.476887e-03	4.282623e-03	2.189877e-04	-2.189877e-04	2.289404e-02	-2.677932e-02
61            	9.142866e-03	-8.108774e-21	-4.332750e-03	1.083188e-04	2.644974e-02	2.285716e-04	4.679752e-03	4.463114e-03	2.285716e-04	-2.285716e-04	2.428337e-02	-2.861612e-02
62            	9.602773e-03	-9.482442e-21	-4.781150e-03	1.195288e-04	2.828322e-02	2.400693e-04	4.920915e-03	4.681858e-03	2.400693e-04	-2.400693e-04	2.589264e-02	-3.067379e-02
63            	1.004951e-02	-1.278030e-20	-5.119965e-03	1.279991e-04	2.995117e-02	2.512377e-04	5.152752e-03	4.896754e-03	2.512377e-04	-2.512377e-04	2.739119e-02	-3.251116e-02
64            	1.041838e-02	-1.419449e-20	-5.292921e-03	1.323230e-04	3.119117e-02	2.604594e-04	5.341511e-03	5.076865e-03	2.604594e-04	-2.604594e-04	2.854471e-02	-3.383763e-02
65            	1.068498e-02	-1.454785e-20	-5.271666e-03	1.317916e-04	3.186036e-02	2.671244e-04	5.474280e-03	5.210697e-03	2.671244e-04	-2.671244e-04	2.922453e-02	-3.449619e-02
66            	1.074202e-02	-1.222659e-20	-5.036275e-03	1.259069e-04	3.163880e-02	2.685505e-04	5.496917e-03	5.245103e-03	2.685505e-04	-2.685505e-04	2.912066e-02	-3.415694e-02
67            	1.048542e-02	-1.108668e-20	-4.632694e-03	1.158173e-04	3.032998e-02	2.621356e-04	5.358529e-03	5.126895e-03	2.621356e-04	-2.621356e-04	2.801363e-02	-3.264632e-02
68            	9.994646e-03	-1.423014e-20	-4.175448e-03	1.043862e-04	2.840424e-02	2.498661e-04	5.101709e-03	4.892937e-03	2.498661e-04	-2.498661e-04	2.631652e-02	-3.049196e-02
69            	9.525518e-03	-1.852085e-20	-3.841430e-03	9.603574e-05	2.674142e-02	2.381380e-04	4.858795e-03	4.666723e-03	2.381380e-04	-2.381380e-04	2.482070e-02	-2.866213e-02
70            	9.090913e-03	-1.752161e-20	-3.595821e-03	8.989553e-05	2.527497e-02	2.272728e-04	4.635352e-03	4.455561e-03	2.272728e-04	-2.272728e-04	2.347706e-02	-2.707288e-02
71            	8.888031e-03	-1.427566e-20	-3.566215e-03	8.915537e-05	2.470713e-02	2.222008e-04	4.533171e-03	4.354860e-03	2.222008e-04	-2.222008e-04	2.292402e-02	-2.649023e-02
72            	8.751676e-03	-1.126283e-20	-3.670877e-03	9.177192e-05	2.449703e-02	2.187919e-04	4.467610e-03	4.284066e-03	2.187919e-04	-2.187919e-04	2.266159e-02	-2.633246e-02
73            	8.964330e-03	-1.023544e-20	-4.051186e-03	1.012796e-04	2.556565e-02	2.241082e-04	4.583444e-03	4.380885e-03	2.241082e-04	-2.241082e-04	2.354006e-02	-2.759125e-02
74            	9.375774e-03	-1.033453e-20	-4.573662e-03	1.143416e-04	2.736146e-02	2.343943e-04	4.802228e-03	4.573545e-03	2.343943e-04	-2.343943e-04	2.507463e-02	-2.964829e-02
75            	9.990793e-03	-1.081746e-20	-5.176532e-03	1.294133e-04	2.980943e-02	2.497698e-04	5.124810e-03	4.865983e-03	2.497698e-04	-2.497698e-04	2.722116e-02	-3.239769e-02
76            	1.057195e-02	-1.423649e-20	-5.612852e-03	1.403213e-04	3.197383e-02	2.642987e-04	5.426295e-03	5.145653e-03	2.642987e-04	-2.642987e-04	2.916740e-02	-3.478026e-02
77            	1.102484e-02	-1.623105e-20	-5.795851e-03	1.448963e-04	3.345467e-02	2.756211e-04	5.657317e-03	5.367525e-03	2.756211e-04	-2.756211e-04	3.055674e-02	-3.635259e-02
78            	1.130733e-02	-1.624503e-20	-5.727048e-03	1.431762e-04	3.410124e-02	2.826833e-04	5.796843e-03	5.510490e-03	2.826833e-04	-2.826833e-04	3.123772e-02	-3.696476e-02
79            	1.130366e-02	-1.319746e-20	-5.422448e-03	1.355612e-04	3.362177e-02	2.825916e-04	5.787393e-03	5.516271e-03	2.825916e-04	-2.825916e-04	3.091055e-02	-3.633300e-02
80            	1.092068e-02	-1.193277e-20	-4.938471e-03	1.234618e-04	3.187744e-02	2.730171e-04	5.583804e-03	5.336880e-03	2.730171e-04	-2.730171e-04	2.940820e-02	-3.434667e-02
81            	1.038613e-02	-1.677600e-20	-4.454273e-03	1.113568e-04	2.981374e-02	2.596531e-04	5.304420e-03	5.081706e-03	2.596531e-04	-2.596531e-04	2.758660e-02	-3.204088e-02
82            	9.874129e-03	-1.974608e-20	-4.065792e-03	1.016448e-04	2.795857e-02	2.468532e-04	5.038709e-03	4.835420e-03	2.468532e-04	-2.468532e-04	2.592567e-02	-2.999146e-02
83            	9.347696e-03	-1.837037e-20	-3.717353e-03	9.293381e-05	2.609805e-02	2.336924e-04	4.766782e-03	4.580914e-03	2.336924e-04	-2.336924e-04	2.423938e-02	-2.795673e-02
84            	8.976666e-03	-1.606728e-20	-3.572832e-03	8.932080e-05	2.493317e-02	2.244166e-04	4.577654e-03	4.399012e-03	2.244166e-04	-2.244166e-04	2.314675e-02	-2.671958e-02
85            	8.775925e-03	-1.274311e-20	-3.640355e-03	9.100888e-05	2.450389e-02	2.193981e-04	4.478971e-03	4.296953e-03	2.193981e-04	-2.193981e-04	2.268371e-02	-2.632407e-02
86            	8.912121e-03	-1.126297e-20	-3.995839e-03	9.989597e-05	2.534160e-02	2.228030e-04	4.555957e-03	4.356165e-03	2.228030e-04	-2.228030e-04	2.334368e-02	-2.733952e-02
87            	9.376734e-03	-1.084335e-20	-4.567308e-03	1.141827e-04	2.732745e-02	2.344184e-04	4.802550e-03	4.574185e-03	2.344184e-04	-2.344184e-04	2.504380e-02	-2.961111e-02
88            	9.959028e-03	-1.154340e-20	-5.172528e-03	1.293132e-04	2.969186e-02	2.489757e-04	5.108827e-03	4.850201e-03	2.489757e-04	-2.489757e-04	2.710560e-02	-3.227813e-02
89            	1.051618e-02	-1.486160e-20	-5.641320e-03	1.410330e-04	3.183265e-02	2.629046e-04	5.399125e-03	5.117059e-03	2.629046e-04	-2.629046e-04	2.901199e-02	-3.465331e-02
90            	1.106828e-02	-1.698676e-20	-5.951949e-03	1.487987e-04	3.375956e-02	2.767069e-04	5.682937e-03	5.385339e-03	2.767069e-04	-2.767069e-04	3.078358e-02	-3.673553e-02
91            	1.143853e-02	-1.802538e-20	-5.969541e-03	1.492385e-04	3.477480e-02	2.859632e-04	5.868503e-03	5.570026e-03	2.859632e-04	-2.859632e-04	3.179003e-02	-3.775957e-02
92            	1.153416e-02	-1.466009e-20	-5.694575e-03	1.423644e-04	3.460380e-02	2.883539e-04	5.909443e-03	5.624714e-03	2.883539e-04	-2.883539e-04	3.175651e-02	-3.745108e-02
93            	1.127706e-02	-1.595597e-20	-5.271659e-03	1.317915e-04	3.328464e-02	2.819266e-04	5.770323e-03	5.506740e-03	2.819266e-04	-2.819266e-04	3.064881e-02	-3.592047e-02
94            	1.076132e-02	-1.650495e-20	-4.737291e-03	1.184323e-04	3.116196e-02	2.690329e-04	5.499090e-03	5.262226e-03	2.690329e-04	-2.690329e-04	2.879331e-02	-3.353060e-02
95            	1.016264e-02	-1.993027e-20	-4.267272e-03	1.066818e-04	2.897333e-02	2.540659e-04	5.187999e-03	4.974636e-03	2.540659e-04	-2.540659e-04	2.683969e-02	-3.110697e-02
96            	9.667923e-03	-1.830253e-20	-3.911666e-03	9.779166e-05	2.719158e-02	2.416981e-04	4.931753e-03	4.736170e-03	2.416981e-04	-2.416981e-04	2.523575e-02	-2.914741e-02
97            	9.203142e-03	-1.682430e-20	-3.649392e-03	9.123480e-05	2.561225e-02	2.300785e-04	4.692806e-03	4.510336e-03	2.300785e-04	-2.300785e-04	2.378756e-02	-2.743695e-02
98            	8.919666e-03	-1.427181e-20	-3.610153e-03	9.025383e-05	2.481635e-02	2.229917e-04	4.550087e-03	4.369579e-03	2.229917e-04	-2.229917e-04	2.301128e-02	-2.662143e-02
99            	8.836265e-03	-1.214637e-20	-3.802701e-03	9.506754e-05	2.485813e-02	2.209066e-04	4.513200e-03	4.323065e-03	2.209066e-04	-2.209066e-04	2.295678e-02	-2.675948e-02
100           	9.146058e-03	-1.183095e-20	-4.306767e-03	1.076692e-04	2.635491e-02	2.286514e-04	4.680698e-03	4.465360e-03	2.286514e-04	-2.286514e-04	2.420153e-02	-2.850830e-02
101           	9.731635e-03	-1.128261e-20	-4.968031e-03	1.242008e-04	2.879267e-02	2.432909e-04	4.990018e-03	4.741617e-03	2.432909e-04	-2.432909e-04	2.630866e-02	-3.127669e-02
102           	1.042178e-02	-1.397800e-20	-5.604368e-03	1.401092e-04	3.149012e-02	2.605444e-04	5.350997e-03	5.070779e-03	2.605444e-04	-2.605444e-04	2.868794e-02	-3.429231e-02
103           	1.098729e-02	-1.704584e-20	-5.997267e-03	1.499317e-04	3.356673e-02	2.746823e-04	5.643577e-03	5.343714e-03	2.746823e-04	-2.746823e-04	3.056810e-02	-3.656537e-02
104           	1.145104e-02	-1.853044e-20	-6.162771e-03	1.540693e-04	3.505879e-02	2.862760e-04	5.879589e-03	5.571450e-03	2.862760e-04	-2.862760e-04	3.197740e-02	-3.814017e-02
105           	1.173684e-02	-1.809359e-20	-6.040111e-03	1.510028e-04	3.562486e-02	2.934210e-04	6.019422e-03	5.717416e-03	2.934210e-04	-2.934210e-04	3.260481e-02	-3.864492e-02
106           	1.166942e-02	-1.641558e-20	-5.695681e-03	1.423920e-04	3.493328e-02	2.917355e-04	5.977102e-03	5.692318e-03	2.917355e-04	-2.917355e-04	3.208544e-02	-3.778112e-02
107           	1.125588e-02	-1.314727e-20	-5.176022e-03	1.294006e-04	3.306244e-02	2.813971e-04	5.757343e-03	5.498542e-03	2.813971e-04	-2.813971e-04	3.047443e-02	-3.565045e-02
108           	1.067260e-02	-1.790981e-20	-4.633898e-03	1.158474e-04	3.079307e-02	2.668150e-04	5.452148e-03	5.220454e-03	2.668150e-04	-2.668150e-04	2.847612e-02	-3.311002e-02
109           	1.008366e-02	-2.102895e-20	-4.177891e-03	1.044473e-04	2.864461e-02	2.520915e-04	5.146277e-03	4.937383e-03	2.520915e-04	-2.520915e-04	2.655567e-02	-3.073356e-02
110           	9.510433e-03	-1.933043e-20	-3.787506e-03	9.468765e-05	2.660379e-02	2.377608e-04	4.849904e-03	4.660529e-03	2.377608e-04	-2.377608e-04	2.471003e-02	-2.849754e-02
111           	9.068463e-03	-1.707746e-20	-3.586639e-03	8.966598e-05	2.517456e-02	2.267116e-04	4.623897e-03	4.444565e-03	2.267116e-04	-2.267116e-04	2.338124e-02	-2.696787e-02
112           	8.879772e-03	-1.374154e-20	-3.644593e-03	9.111484e-05	2.476045e-02	2.219943e-04	4.531001e-03	4.348771e-03	2.219943e-04	-2.219943e-04	2.293815e-02	-2.658275e-02
113           	8.899722e-03	-1.205332e-20	-3.925043e-03	9.812608e-05	2.518711e-02	2.224930e-04	4.547987e-03	4.351735e-03	2.224930e-04	-2.224930e-04	2.322459e-02	-2.714963e-02
114           	9.332743e-03	-1.155440e-20	-4.504894e-03	1.126223e-04	2.709947e-02	2.333186e-04	4.778994e-03	4.553749e-03	2.333186e-04	-2.333186e-04	2.484703e-02	-2.935192e-02
115           	9.942040e-03	-1.146998e-20	-5.168488e-03	1.292122e-04	2.961235e-02	2.485510e-04	5.100232e-03	4.841808e-03	2.485510e-04	-2.485510e-04	2.702810e-02	-3.219659e-02
116           	1.055300e-02	-1.499990e-20	-5.714532e-03	1.428633e-04	3.199481e-02	2.638250e-04	5.419364e-03	5.133637e-03	2.638250e-04	-2.638250e-04	2.913754e-02	-3.485207e-02
117           	1.112702e-02	-1.797542e-20	-6.073083e-03	1.518271e-04	3.405363e-02	2.781755e-04	5.715337e-03	5.411683e-03	2.781755e-04	-2.781755e-04	3.101709e-02	-3.709017e-02
118           	1.157433e-02	-1.917919e-20	-6.173840e-03	1.543460e-04	3.539395e-02	2.893583e-04	5.941513e-03	5.632821e-03	2.893583e-04	-2.893583e-04	3.230703e-02	-3.848088e-02
119           	1.174492e-02	-1.783809e-20	-5.955622e-03	1.488905e-04	3.551893e-02	2.936229e-04	6.021349e-03	5.723568e-03	2.936229e-04	-2.936229e-04	3.254112e-02	-3.849674e-02
120           	1.157180e-02	-1.712350e-20	-5.570221e-03	1.392555e-04	3.448692e-02	2.892950e-04	5.925156e-03	5.646645e-03	2.892950e-04	-2.892950e-04	3.170181e-02	-3.727203e-02
121           	1.112105e-02	-1.300088e-20	-5.056466e-03	1.264116e-04	3.254074e-02	2.780262e-04	5.686936e-03	5.434113e-03	2.780262e-04	-2.780262e-04	3.001251e-02	-3.506897e-02
122           	1.052484e-02	-1.709005e-20	-4.526188e-03	1.131547e-04	3.026662e-02	2.631209e-04	5.375573e-03	5.149264e-03	2.631209e-04	-2.631209e-04	2.800353e-02	-3.252972e-02
123           	9.922495e-03	-2.068471e-20	-4.081764e-03	1.020441e-04	2.808900e-02	2.480624e-04	5.063291e-03	4.859203e-03	2.480624e-04	-2.480624e-04	2.604811e-02	-3.012988e-02
124           	9.402679e-03	-1.879836e-20	-3.749750e-03	9.374376e-05	2.627055e-02	2.350670e-04	4.795083e-03	4.607596e-03	2.350670e-04	-2.350670e-04	2.439567e-02	-2.814542e-02
125           	8.952253e-03	-1.677166e-20	-3.586011e-03	8.965027e-05	2.487684e-02	2.238063e-04	4.565777e-03	4.386476e-03	2.238063e-04	-2.238063e-04	2.308384e-02	-2.666985e-02
126           	8.903667e-03	-1.236565e-20	-3.762069e-03	9.405174e-05	2.498173e-02	2.225917e-04	4.545885e-03	4.357782e-03	2.225917e-04	-2.225917e-04	2.310069e-02	-2.686276e-02
127           	9.001270e-03	-1.267065e-20	-4.098986e-03	1.024747e-04	2.568931e-02	2.250318e-04	4.603110e-03	4.398161e-03	2.250318e-04	-2.250318e-04	2.363981e-02	-2.773880e-02
128           	9.465132e-03	-1.182096e-20	-4.688020e-03	1.172005e-04	2.769491e-02	2.366283e-04	4.849766e-03	4.615365e-03	2.366283e-04	-2.366283e-04	2.535090e-02	-3.003892e-02
129           	1.010902e-02	-1.207851e-20	-5.350321e-03	1.337580e-04	3.030129e-02	2.527255e-04	5.188269e-03	4.920752e-03	2.527255e-04	-2.527255e-04	2.762613e-02	-3.297645e-02
130           	1.068997e-02	-1.574731e-20	-5.832182e-03	1.458046e-04	3.252705e-02	2.672492e-04	5.490789e-03	5.199180e-03	2.672492e-04	-2.672492e-04	2.961096e-02	-3.544314e-02
131           	1.126791e-02	-1.798196e-20	-6.148533e-03	1.537133e-04	3.453459e-02	2.816977e-04	5.787668e-03	5.480241e-03	2.816977e-04	-2.816977e-04	3.146032e-02	-3.760886e-02
132           	1.160161e-02	-1.911286e-20	-6.142012e-03	1.535503e-04	3.543038e-02	2.900403e-04	5.954356e-03	5.647255e-03	2.900403e-04	-2.900403e-04	3.235938e-02	-3.850139e-02
133           	1.172428e-02	-1.639359e-20	-5.920039e-03	1.480010e-04	3.542874e-02	2.931069e-04	6.010139e-03	5.714137e-03	2.931069e-04	-2.931069e-04	3.246872e-02	-3.838876e-02
134           	1.147927e-02	-1.562121e-20	-5.475351e-03	1.368838e-04	3.411367e-02	2.869818e-04	5.876521e-03	5.602753e-03	2.869818e-04	-2.869818e-04	3.137600e-02	-3.685135e-02
135           	1.099642e-02	-1.515760e-20	-4.942720e-03	1.235680e-04	3.206080e-02	2.749104e-04	5.621776e-03	5.374640e-03	2.749104e-04	-2.749104e-04	2.958944e-02	-3.453216e-02
136           	1.038748e-02	-1.756775e-20	-4.416605e-03	1.104151e-04	2.975967e-02	2.596869e-04	5.304154e-03	5.083324e-03	2.596869e-04	-2.596869e-04	2.755137e-02	-3.196797e-02
137           	9.789502e-03	-2.083244e-20	-3.991330e-03	9.978326e-05	2.761291e-02	2.447376e-04	4.994534e-03	4.794968e-03	2.447376e-04	-2.447376e-04	2.561724e-02	-2.960857e-02
138           	9.309517e-03	-1.899211e-20	-3.710578e-03	9.276445e-05	2.596965e-02	2.327379e-04	4.747523e-03	4.561994e-03	2.327379e-04	-2.327379e-04	2.411436e-02	-2.782494e-02
139           	8.954668e-03	-1.631458e-20	-3.615283e-03	9.038208e-05	2.491148e-02	2.238667e-04	4.567716e-03	4.386952e-03	2.238667e-04	-2.238667e-04	2.310383e-02	-2.671912e-02
140           	8.828004e-03	-1.297953e-20	-3.775796e-03	9.439491e-05	2.480094e-02	2.207001e-04	4.508397e-03	4.319607e-03	2.207001e-04	-2.207001e-04	2.291304e-02	-2.668883e-02
141           	9.090438e-03	-1.212189e-20	-4.243932e-03	1.060983e-04	2.611795e-02	2.272609e-04	4.651317e-03	4.439121e-03	2.272609e-04	-2.272609e-04	2.399599e-02	-2.823992e-02
142           	9.639711e-03	-1.150923e-20	-4.878522e-03	1.219630e-04	2.841027e-02	2.409928e-04	4.941818e-03	4.697892e-03	2.409928e-04	-2.409928e-04	2.597101e-02	-3.084953e-02
143           	1.030537e-02	-1.324018e-20	-5.525688e-03	1.381422e-04	3.105408e-02	2.576341e-04	5.290825e-03	5.014541e-03	2.576341e-04	-2.576341e-04	2.829124e-02	-3.381693e-02
144           	1.085756e-02	-1.650626e-20	-5.945782e-03	1.486445e-04	3.312571e-02	2.714389e-04	5.577423e-03	5.280134e-03	2.714389e-04	-2.714389e-04	3.015282e-02	-3.609860e-02
145           	1.138735e-02	-1.810579e-20	-6.195830e-03	1.548958e-04	3.491098e-02	2.846836e-04	5.848569e-03	5.538777e-03	2.846836e-04	-2.846836e-04	3.181306e-02	-3.800889e-02
146           	1.171956e-02	-1.872191e-20	-6.148215e-03	1.537054e-04	3.573318e-02	2.929890e-04	6.013484e-03	5.706074e-03	2.929890e-04	-2.929890e-04	3.265907e-02	-3.880729e-02
147           	1.173429e-02	-1.574646e-20	-5.828909e-03	1.457227e-04	3.530357e-02	2.933572e-04	6.012866e-03	5.721421e-03	2.933572e-04	-2.933572e-04	3.238911e-02	-3.821802e-02
148           	1.136670e-02	-1.442656e-20	-5.306174e-03	1.326544e-04	3.354369e-02	2.841675e-04	5.816005e-03	5.550696e-03	2.841675e-04	-2.841675e-04	3.089060e-02	-3.619678e-02
149           	1.075475e-02	-1.660554e-20	-4.708690e-03	1.177173e-04	3.109896e-02	2.688687e-04	5.495091e-03	5.259656e-03	2.688687e-04	-2.688687e-04	2.874461e-02	-3.345330e-02
150           	1.018789e-02	-2.137077e-20	-4.258552e-03	1.064638e-04	2.902602e-02	2.546972e-04	5.200407e-03	4.987480e-03	2.546972e-04	-2.546972e-04	2.689674e-02	-3.115529e-02
151           	9.617289e-03	-2.000883e-20	-3.858086e-03	9.645216e-05	2.698049e-02	2.404322e-04	4.905097e-03	4.712192e-03	2.404322e-04	-2.404322e-04	2.505144e-02	-2.890953e-02
152           	9.186444e-03	-1.736949e-20	-3.637824e-03	9.094560e-05	2.554824e-02	2.296611e-04	4.684168e-03	4.502277e-03	2.296611e-04	-2.296611e-04	2.372932e-02	-2.736715e-02
153           	8.946776e-03	-1.466729e-20	-3.645540e-03	9.113849e-05	2.492425e-02	2.236694e-04	4.564526e-03	4.382249e-03	2.236694e-04	-2.236694e-04	2.310148e-02	-2.674702e-02
154           	8.909606e-03	-1.217161e-20	-3.881520e-03	9.703799e-05	2.514188e-02	2.227402e-04	4.551841e-03	4.357765e-03	2.227402e-04	-2.227402e-04	2.320112e-02	-2.708264e-02
155           	9.260394e-03	-1.195712e-20	-4.410664e-03	1.102666e-04	2.677243e-02	2.315098e-04	4.740463e-03	4.519930e-03	2.315098e-04	-2.315098e-04	2.456710e-02	-2.897776e-02
156           	9.827196e-03	-1.167545e-20	-5.063602e-03	1.265901e-04	2.915093e-02	2.456799e-04	5.040188e-03	4.787008e-03	2.456799e-04	-2.456799e-04	2.661913e-02	-3.168273e-02
157           	1.051080e-02	-1.452076e-20	-5.698670e-03	1.424667e-04	3.183025e-02	2.627701e-04	5.397868e-03	5.112934e-03	2.627701e-04	-2.627701e-04	2.898091e-02	-3.467958e-02
158           	1.112640e-02	-1.748195e-20	-6.124186e-03	1.531046e-04	3.408147e-02	2.781601e-04	5.716306e-03	5.410097e-03	2.781601e-04	-2.781601e-04	3.101938e-02	-3.714357e-02
159           	1.156863e-02	-1.924457e-20	-6.262384e-03	1.565596e-04	3.548416e-02	2.892156e-04	5.940872e-03	5.627753e-03	2.892156e-04	-2.892156e-04	3.235297e-02	-3.861535e-02
160           	1.179127e-02	-1.867531e-20	-6.111751e-03	1.527938e-04	3.585945e-02	2.947818e-04	6.048431e-03	5.742843e-03	2.947818e-04	-2.947818e-04	3.280358e-02	-3.891533e-02
161           	1.173821e-02	-1.613177e-20	-5.786603e-03	1.446651e-04	3.523835e-02	2.934552e-04	6.013768e-03	5.724438e-03	2.934552e-04	-2.934552e-04	3.234505e-02	-3.813166e-02
162           	1.134344e-02	-1.505321e-20	-5.273391e-03	1.318348e-04	3.342916e-02	2.835860e-04	5.803555e-03	5.539886e-03	2.835860e-04	-2.835860e-04	3.079247e-02	-3.606586e-02
163           	1.079632e-02	-1.828951e-20	-4.727233e-03	1.181808e-04	3.123605e-02	2.699079e-04	5.516338e-03	5.279977e-03	2.699079e-04	-2.699079e-04	2.887243e-02	-3.359966e-02
164           	1.018525e-02	-2.063554e-20	-4.239509e-03	1.059877e-04	2.898412e-02	2.546312e-04	5.198612e-03	4.986637e-03	2.546312e-04	-2.546312e-04	2.686437e-02	-3.110388e-02
165           	9.631760e-03	-1.888137e-20	-3.842696e-03	9.606740e-05	2.698597e-02	2.407940e-04	4.911948e-03	4.719813e-03	2.407940e-04	-2.407940e-04	2.506462e-02	-2.890731e-02
166           	9.155006e-03	-1.690024e-20	-3.594369e-03	8.985921e-05	2.539858e-02	2.288751e-04	4.667362e-03	4.487644e-03	2.288751e-04	-2.288751e-04	2.360140e-02	-2.719577e-02
167           	8.896309e-03	-1.448361e-20	-3.600336e-03	9.000840e-05	2.473316e-02	2.224077e-04	4.538163e-03	4.358146e-03	2.224077e-04	-2.224077e-04	2.293299e-02	-2.653333e-02