# Force coefficients
# dragDir     : (1.000000e+00 0.000000e+00 0.000000e+00)
# sideDir     : (0.000000e+00 0.000000e+00 -1.000000e+00)
# liftDir     : (0.000000e+00 1.000000e+00 0.000000e+00)
# rollAxis    : (1.000000e+00 0.000000e+00 0.000000e+00)
# pitchAxis   : (0.000000e+00 0.000000e+00 -1.000000e+00)
# yawAxis     : (0.000000e+00 1.000000e+00 0.000000e+00)
# magUInf     : 4.000000e-02
# lRef        : 1.000000e-01
# Aref        : 1.000000e-01
# CofR        : (0.000000e+00 0.000000e+00 0.000000e+00)
#
# Time        	Cd            	Cs            	Cl            	CmRoll        	CmPitch       	CmYaw         	Cd(f)         	Cd(r)         	Cs(f)         	Cs(r)         	Cl(f)         	Cl(r)         
1             	2.461709e-03	1.514579e-19	1.205383e-03	-3.013457e-05	2.327473e-03	6.154274e-05	1.200720e-03	1.260989e-03	6.154274e-05	-6.154274e-05	2.930165e-03	-1.724782e-03
2             	9.428318e-03	1.709202e-19	4.107032e-03	-1.026758e-04	1.007215e-02	2.357080e-04	4.611483e-03	4.816835e-03	2.357080e-04	-2.357080e-04	1.212566e-02	-8.018631e-03
3             	9.414243e-03	-2.764218e-20	5.460945e-03	-1.365236e-04	7.140256e-03	2.353561e-04	4.570598e-03	4.843645e-03	2.353561e-04	-2.353561e-04	9.870728e-03	-4.409783e-03
4             	7.865770e-03	-3.207059e-20	6.374087e-03	-1.593522e-04	2.100511e-03	1.966443e-04	3.773533e-03	4.092237e-03	1.966443e-04	-1.966443e-04	5.287554e-03	1.086533e-03
5             	6.793295e-03	5.943752e-21	7.176930e-03	-1.794233e-04	-1.795252e-03	1.698324e-04	3.217224e-03	3.576071e-03	1.698324e-04	-1.698324e-04	1.793213e-03	5.383717e-03
6             	6.518275e-03	2.508960e-20	7.840104e-03	-1.960026e-04	-3.772377e-03	1.629569e-04	3.063135e-03	3.455140e-03	1.629569e-04	-1.629569e-04	1.476751e-04	7.692429e-03
7             	6.646166e-03	3.049552e-20	8.307880e-03	-2.076970e-04	-4.500726e-03	1.661542e-04	3.115386e-03	3.530780e-03	1.661542e-04	-1.661542e-04	-3.467853e-04	8.654666e-03
8             	6.731789e-03	2.617127e-20	8.479916e-03	-2.119979e-04	-4.662855e-03	1.682947e-04	3.153896e-03	3.577892e-03	1.682947e-04	-1.682947e-04	-4.228968e-04	8.902813e-03
9             	7.014769e-03	2.912452e-20	8.625546e-03	-2.156386e-04	-4.382148e-03	1.753692e-04	3.291746e-03	3.723023e-03	1.753692e-04	-1.753692e-04	-6.937498e-05	8.694921e-03
10            	7.018141e-03	2.571234e-20	8.539258e-03	-2.134815e-04	-4.159544e-03	1.754535e-04	3.295589e-03	3.722552e-03	1.754535e-04	-1.754535e-04	1.100848e-04	8.429174e-03
11            	6.834058e-03	2.319031e-20	8.304712e-03	-2.076178e-04	-3.999211e-03	1.708515e-04	3.209411e-03	3.624647e-03	1.708515e-04	-1.708515e-04	1.531452e-04	8.151567e-03
12            	6.607384e-03	2.216029e-20	7.888805e-03	-1.972201e-04	-3.529218e-03	1.651846e-04	3.106472e-03	3.500912e-03	1.651846e-04	-1.651846e-04	4.151845e-04	7.473621e-03
13            	6.400784e-03	2.074268e-20	7.402436e-03	-1.850609e-04	-2.866667e-03	1.600196e-04	3.015331e-03	3.385453e-03	1.600196e-04	-1.600196e-04	8.345515e-04	6.567885e-03
14            	6.278442e-03	2.018826e-20	6.953937e-03	-1.738484e-04	-2.118243e-03	1.569610e-04	2.965372e-03	3.313069e-03	1.569610e-04	-1.569610e-04	1.358725e-03	5.595212e-03
15            	6.230987e-03	1.986934e-20	6.571766e-03	-1.642942e-04	-1.370958e-03	1.557747e-04	2.951199e-03	3.279787e-03	1.557747e-04	-1.557747e-04	1.914925e-03	4.656842e-03
16            	6.214930e-03	1.978707e-20	6.307936e-03	-1.576984e-04	-8.242188e-04	1.553732e-04	2.949767e-03	3.265163e-03	1.553732e-04	-1.553732e-04	2.329749e-03	3.978187e-03
17            	6.213549e-03	2.007657e-20	6.171488e-03	-1.542872e-04	-5.240947e-04	1.553387e-04	2.952487e-03	3.261061e-03	1.553387e-04	-1.553387e-04	2.561649e-03	3.609839e-03
18            	6.202279e-03	1.949360e-20	6.176457e-03	-1.544114e-04	-5.515950e-04	1.550570e-04	2.946728e-03	3.255551e-03	1.550570e-04	-1.550570e-04	2.536633e-03	3.639823e-03
19            	6.157001e-03	1.975718e-20	6.306352e-03	-1.576588e-04	-9.186981e-04	1.539250e-04	2.920842e-03	3.236159e-03	1.539250e-04	-1.539250e-04	2.234478e-03	4.071874e-03
20            	6.099643e-03	1.978835e-20	6.542088e-03	-1.635522e-04	-1.543141e-03	1.524911e-04	2.886270e-03	3.213374e-03	1.524911e-04	-1.524911e-04	1.727903e-03	4.814184e-03
21            	6.017711e-03	1.991220e-20	6.828325e-03	-1.707081e-04	-2.331837e-03	1.504428e-04	2.838148e-03	3.179564e-03	1.504428e-04	-1.504428e-04	1.082326e-03	5.746000e-03
22            	5.958870e-03	2.000358e-20	7.098864e-03	-1.774716e-04	-3.048229e-03	1.489717e-04	2.801963e-03	3.156907e-03	1.489717e-04	-1.489717e-04	5.012033e-04	6.597661e-03
23            	5.958558e-03	2.059846e-20	7.239138e-03	-1.809784e-04	-3.363307e-03	1.489640e-04	2.798301e-03	3.160258e-03	1.489640e-04	-1.489640e-04	2.562623e-04	6.982875e-03
24            	6.033361e-03	2.016574e-20	7.212439e-03	-1.803110e-04	-3.162059e-03	1.508340e-04	2.836370e-03	3.196992e-03	1.508340e-04	-1.508340e-04	4.441607e-04	6.768278e-03
25            	6.130616e-03	2.095298e-20	7.055120e-03	-1.763780e-04	-2.632567e-03	1.532654e-04	2.888930e-03	3.241686e-03	1.532654e-04	-1.532654e-04	8.949933e-04	6.160127e-03
26            	6.211628e-03	2.036326e-20	6.805973e-03	-1.701493e-04	-1.935126e-03	1.552907e-04	2.935665e-03	3.275963e-03	1.552907e-04	-1.552907e-04	1.467860e-03	5.338113e-03
27            	6.277933e-03	2.129744e-20	6.513214e-03	-1.628303e-04	-1.166684e-03	1.569483e-04	2.976136e-03	3.301797e-03	1.569483e-04	-1.569483e-04	2.089923e-03	4.423291e-03
28            	6.356505e-03	2.044303e-20	6.236281e-03	-1.559070e-04	-4.013478e-04	1.589126e-04	3.022346e-03	3.334160e-03	1.589126e-04	-1.589126e-04	2.716793e-03	3.519488e-03
29            	6.478733e-03	2.037126e-20	6.049583e-03	-1.512396e-04	2.509718e-04	1.619683e-04	3.088127e-03	3.390606e-03	1.619683e-04	-1.619683e-04	3.275764e-03	2.773820e-03
30            	6.584694e-03	2.028197e-20	5.998533e-03	-1.499633e-04	5.779706e-04	1.646174e-04	3.142384e-03	3.442311e-03	1.646174e-04	-1.646174e-04	3.577237e-03	2.421296e-03
31            	6.686494e-03	1.894189e-20	6.183795e-03	-1.545949e-04	3.818763e-04	1.671624e-04	3.188652e-03	3.497842e-03	1.671624e-04	-1.671624e-04	3.473774e-03	2.710021e-03
32            	6.700877e-03	1.992496e-20	6.592264e-03	-1.648066e-04	-4.748308e-04	1.675219e-04	3.185632e-03	3.515245e-03	1.675219e-04	-1.675219e-04	2.821301e-03	3.770963e-03
33            	6.650151e-03	2.023424e-20	7.125015e-03	-1.781254e-04	-1.736878e-03	1.662538e-04	3.146950e-03	3.503201e-03	1.662538e-04	-1.662538e-04	1.825630e-03	5.299385e-03
34            	6.546496e-03	2.029975e-20	7.623081e-03	-1.905770e-04	-3.040557e-03	1.636624e-04	3.082671e-03	3.463825e-03	1.636624e-04	-1.636624e-04	7.709831e-04	6.852098e-03
35            	6.444671e-03	2.129349e-20	7.963373e-03	-1.990843e-04	-4.002167e-03	1.611168e-04	3.023251e-03	3.421420e-03	1.611168e-04	-1.611168e-04	-2.048089e-05	7.983854e-03
36            	6.440816e-03	2.150823e-20	7.957444e-03	-1.989361e-04	-4.006097e-03	1.610204e-04	3.021472e-03	3.419344e-03	1.610204e-04	-1.610204e-04	-2.737436e-05	7.984819e-03
37            	6.547233e-03	2.067306e-20	7.676783e-03	-1.919196e-04	-3.188117e-03	1.636808e-04	3.081697e-03	3.465536e-03	1.636808e-04	-1.636808e-04	6.502744e-04	7.026509e-03
38            	6.625228e-03	2.064830e-20	7.309650e-03	-1.827412e-04	-2.236903e-03	1.656307e-04	3.129873e-03	3.495355e-03	1.656307e-04	-1.656307e-04	1.417921e-03	5.891728e-03
39            	6.677322e-03	2.042486e-20	6.905061e-03	-1.726265e-04	-1.246211e-03	1.669331e-04	3.166035e-03	3.511288e-03	1.669331e-04	-1.669331e-04	2.206319e-03	4.698742e-03
40            	6.768032e-03	2.035394e-20	6.543681e-03	-1.635920e-04	-2.665267e-04	1.692008e-04	3.220424e-03	3.547608e-03	1.692008e-04	-1.692008e-04	3.005314e-03	3.538367e-03
41            	6.859587e-03	2.093687e-20	6.360885e-03	-1.590221e-04	3.218939e-04	1.714897e-04	3.270771e-03	3.588815e-03	1.714897e-04	-1.714897e-04	3.502336e-03	2.858549e-03
42            	6.927704e-03	2.083128e-20	6.427174e-03	-1.606793e-04	3.185031e-04	1.731926e-04	3.303172e-03	3.624531e-03	1.731926e-04	-1.731926e-04	3.532090e-03	2.895084e-03
43            	6.901595e-03	2.121875e-20	6.717574e-03	-1.679394e-04	-3.609022e-04	1.725399e-04	3.282858e-03	3.618737e-03	1.725399e-04	-1.725399e-04	2.997885e-03	3.719689e-03
44            	6.812856e-03	2.154112e-20	7.136253e-03	-1.784063e-04	-1.446934e-03	1.703214e-04	3.228022e-03	3.584835e-03	1.703214e-04	-1.703214e-04	2.121193e-03	5.015060e-03
45            	6.690217e-03	2.109947e-20	7.592595e-03	-1.898149e-04	-2.688714e-03	1.672554e-04	3.155294e-03	3.534923e-03	1.672554e-04	-1.672554e-04	1.107584e-03	6.485011e-03
46            	6.563515e-03	2.142355e-20	7.984145e-03	-1.996036e-04	-3.806715e-03	1.640879e-04	3.082154e-03	3.481361e-03	1.640879e-04	-1.640879e-04	1.853571e-04	7.798788e-03
47            	6.489838e-03	2.038783e-20	8.190118e-03	-2.047530e-04	-4.414132e-03	1.622460e-04	3.040166e-03	3.449672e-03	1.622460e-04	-1.622460e-04	-3.190732e-04	8.509192e-03
48            	6.533076e-03	2.049728e-20	8.087893e-03	-2.021973e-04	-4.111700e-03	1.633269e-04	3.064341e-03	3.468735e-03	1.633269e-04	-1.633269e-04	-6.775314e-05	8.155646e-03
49            	6.647446e-03	2.033086e-20	7.767735e-03	-1.941934e-04	-3.191037e-03	1.661862e-04	3.129530e-03	3.517916e-03	1.661862e-04	-1.661862e-04	6.928302e-04	7.074905e-03
50            	6.724912e-03	2.007263e-20	7.367601e-03	-1.841900e-04	-2.167870e-03	1.681228e-04	3.178266e-03	3.546646e-03	1.681228e-04	-1.681228e-04	1.515931e-03	5.851670e-03
51            	6.773328e-03	1.975832e-20	6.923817e-03	-1.730954e-04	-1.095971e-03	1.693332e-04	3.213569e-03	3.559759e-03	1.693332e-04	-1.693332e-04	2.365938e-03	4.557880e-03
52            	6.840378e-03	1.967077e-20	6.532422e-03	-1.633105e-04	-9.554326e-05	1.710095e-04	3.256879e-03	3.583500e-03	1.710095e-04	-1.710095e-04	3.170668e-03	3.361754e-03
53            	6.925099e-03	2.073817e-20	6.354567e-03	-1.588642e-04	4.691056e-04	1.731275e-04	3.303685e-03	3.621414e-03	1.731275e-04	-1.731275e-04	3.646389e-03	2.708178e-03
54            	6.972513e-03	2.036141e-20	6.437511e-03	-1.609378e-04	3.883515e-04	1.743128e-04	3.325319e-03	3.647194e-03	1.743128e-04	-1.743128e-04	3.607107e-03	2.830404e-03
55            	6.917244e-03	2.080543e-20	6.744464e-03	-1.686116e-04	-3.853558e-04	1.729311e-04	3.290011e-03	3.627234e-03	1.729311e-04	-1.729311e-04	2.986876e-03	3.757588e-03
56            	6.812312e-03	2.121499e-20	7.172328e-03	-1.793082e-04	-1.523959e-03	1.703078e-04	3.226848e-03	3.585464e-03	1.703078e-04	-1.703078e-04	2.062205e-03	5.110123e-03
57            	6.685471e-03	2.142499e-20	7.620842e-03	-1.905210e-04	-2.757243e-03	1.671368e-04	3.152215e-03	3.533257e-03	1.671368e-04	-1.671368e-04	1.053178e-03	6.567663e-03
58            	6.568572e-03	2.137955e-20	8.013526e-03	-2.003382e-04	-3.858974e-03	1.642143e-04	3.083948e-03	3.484624e-03	1.642143e-04	-1.642143e-04	1.477888e-04	7.865737e-03
59            	6.522644e-03	2.098341e-20	8.191012e-03	-2.047753e-04	-4.348855e-03	1.630661e-04	3.056547e-03	3.466097e-03	1.630661e-04	-1.630661e-04	-2.533493e-04	8.444361e-03
60            	6.589189e-03	2.062494e-20	8.043153e-03	-2.010788e-04	-3.899250e-03	1.647297e-04	3.093516e-03	3.495673e-03	1.647297e-04	-1.647297e-04	1.223269e-04	7.920826e-03
61            	6.698532e-03	2.045694e-20	7.697411e-03	-1.924353e-04	-2.933674e-03	1.674633e-04	3.156831e-03	3.541701e-03	1.674633e-04	-1.674633e-04	9.150310e-04	6.782380e-03
62            	6.774568e-03	2.013255e-20	7.288661e-03	-1.822165e-04	-1.893683e-03	1.693642e-04	3.205067e-03	3.569500e-03	1.693642e-04	-1.693642e-04	1.750647e-03	5.538014e-03
63            	6.815523e-03	1.980605e-20	6.852654e-03	-1.713164e-04	-8.501241e-04	1.703881e-04	3.236445e-03	3.579078e-03	1.703881e-04	-1.703881e-04	2.576203e-03	4.276451e-03
64            	6.888826e-03	1.977967e-20	6.505081e-03	-1.626270e-04	6.463491e-05	1.722207e-04	3.281786e-03	3.607040e-03	1.722207e-04	-1.722207e-04	3.317175e-03	3.187906e-03
65            	6.957535e-03	2.051777e-20	6.370759e-03	-1.592690e-04	5.018206e-04	1.739384e-04	3.319499e-03	3.638037e-03	1.739384e-04	-1.739384e-04	3.687200e-03	2.683559e-03
66            	6.982545e-03	2.090983e-20	6.493585e-03	-1.623396e-04	2.895485e-04	1.745636e-04	3.328933e-03	3.653612e-03	1.745636e-04	-1.745636e-04	3.536341e-03	2.957244e-03
67            	6.913564e-03	2.110387e-20	6.821498e-03	-1.705375e-04	-5.575560e-04	1.728391e-04	3.286245e-03	3.627320e-03	1.728391e-04	-1.728391e-04	2.853193e-03	3.968305e-03
68            	6.805263e-03	2.145660e-20	7.261118e-03	-1.815279e-04	-1.729728e-03	1.701316e-04	3.221104e-03	3.584160e-03	1.701316e-04	-1.701316e-04	1.900831e-03	5.360287e-03
69            	6.679692e-03	2.159231e-20	7.704948e-03	-1.926237e-04	-2.951382e-03	1.669923e-04	3.147222e-03	3.532470e-03	1.669923e-04	-1.669923e-04	9.010923e-04	6.803856e-03
70            	6.572394e-03	2.143777e-20	8.085053e-03	-2.021263e-04	-4.007203e-03	1.643099e-04	3.084071e-03	3.488324e-03	1.643099e-04	-1.643099e-04	3.532295e-05	8.049730e-03
71            	6.529623e-03	2.036670e-20	8.217218e-03	-2.054304e-04	-4.392156e-03	1.632406e-04	3.059381e-03	3.470242e-03	1.632406e-04	-1.632406e-04	-2.835473e-04	8.500765e-03
72            	6.609228e-03	2.044346e-20	8.031468e-03	-2.007867e-04	-3.833830e-03	1.652307e-04	3.103827e-03	3.505401e-03	1.652307e-04	-1.652307e-04	1.819046e-04	7.849564e-03
73            	6.714750e-03	2.030954e-20	7.669358e-03	-1.917339e-04	-2.840519e-03	1.678687e-04	3.165641e-03	3.549109e-03	1.678687e-04	-1.678687e-04	9.941598e-04	6.675198e-03
74            	6.785918e-03	1.998730e-20	7.253378e-03	-1.813345e-04	-1.793808e-03	1.696479e-04	3.211624e-03	3.574293e-03	1.696479e-04	-1.696479e-04	1.832882e-03	5.420497e-03
75            	6.817512e-03	1.969453e-20	6.806946e-03	-1.701737e-04	-7.450787e-04	1.704378e-04	3.238583e-03	3.578930e-03	1.704378e-04	-1.704378e-04	2.658395e-03	4.148552e-03
76            	6.892663e-03	1.981073e-20	6.445293e-03	-1.611323e-04	2.047839e-04	1.723166e-04	3.285199e-03	3.607464e-03	1.723166e-04	-1.723166e-04	3.427431e-03	3.017863e-03
77            	6.973959e-03	2.069452e-20	6.336631e-03	-1.584158e-04	6.104576e-04	1.743490e-04	3.328564e-03	3.645395e-03	1.743490e-04	-1.743490e-04	3.778773e-03	2.557858e-03
78            	6.989235e-03	2.065062e-20	6.496354e-03	-1.624088e-04	2.987695e-04	1.747309e-04	3.332208e-03	3.657026e-03	1.747309e-04	-1.747309e-04	3.546947e-03	2.949407e-03
79            	6.909111e-03	2.114859e-20	6.858432e-03	-1.714608e-04	-6.449868e-04	1.727278e-04	3.283095e-03	3.626016e-03	1.727278e-04	-1.727278e-04	2.784229e-03	4.074203e-03
80            	6.793387e-03	2.150535e-20	7.314553e-03	-1.828638e-04	-1.868617e-03	1.698347e-04	3.213829e-03	3.579557e-03	1.698347e-04	-1.698347e-04	1.788659e-03	5.525894e-03
81            	6.665379e-03	2.166378e-20	7.780331e-03	-1.945083e-04	-3.144753e-03	1.666345e-04	3.138181e-03	3.527198e-03	1.666345e-04	-1.666345e-04	7.454126e-04	7.034918e-03
82            	6.567603e-03	2.147590e-20	8.152276e-03	-2.038069e-04	-4.164488e-03	1.641901e-04	3.079995e-03	3.487609e-03	1.641901e-04	-1.641901e-04	-8.835012e-05	8.240626e-03
83            	6.546044e-03	2.080541e-20	8.228639e-03	-2.057160e-04	-4.384162e-03	1.636511e-04	3.067306e-03	3.478738e-03	1.636511e-04	-1.636511e-04	-2.698427e-04	8.498482e-03
84            	6.646633e-03	2.056229e-20	8.003196e-03	-2.000799e-04	-3.698396e-03	1.661658e-04	3.123237e-03	3.523396e-03	1.661658e-04	-1.661658e-04	3.032014e-04	7.699994e-03
85            	6.745997e-03	2.041641e-20	7.629923e-03	-1.907481e-04	-2.694143e-03	1.686499e-04	3.182250e-03	3.563747e-03	1.686499e-04	-1.686499e-04	1.120818e-03	6.509105e-03
86            	6.818604e-03	2.004183e-20	7.179370e-03	-1.794843e-04	-1.567686e-03	1.704651e-04	3.229818e-03	3.588786e-03	1.704651e-04	-1.704651e-04	2.022000e-03	5.157371e-03
87            	6.872346e-03	1.969895e-20	6.735475e-03	-1.683869e-04	-4.775032e-04	1.718086e-04	3.267786e-03	3.604560e-03	1.718086e-04	-1.718086e-04	2.890234e-03	3.845241e-03
88            	6.956736e-03	1.974046e-20	6.434367e-03	-1.608592e-04	3.577025e-04	1.739184e-04	3.317509e-03	3.639227e-03	1.739184e-04	-1.739184e-04	3.574886e-03	2.859481e-03
89            	7.021535e-03	2.039103e-20	6.380854e-03	-1.595214e-04	6.101148e-04	1.755384e-04	3.351246e-03	3.670289e-03	1.755384e-04	-1.755384e-04	3.800542e-03	2.580312e-03
90            	7.002900e-03	2.054181e-20	6.583065e-03	-1.645766e-04	1.379564e-04	1.750725e-04	3.336874e-03	3.666027e-03	1.750725e-04	-1.750725e-04	3.429489e-03	3.153576e-03
91            	6.898355e-03	2.111312e-20	6.973736e-03	-1.743434e-04	-9.169720e-04	1.724589e-04	3.274834e-03	3.623521e-03	1.724589e-04	-1.724589e-04	2.569896e-03	4.403840e-03
92            	6.775637e-03	2.149865e-20	7.442494e-03	-1.860624e-04	-2.183730e-03	1.693909e-04	3.201756e-03	3.573881e-03	1.693909e-04	-1.693909e-04	1.537517e-03	5.904977e-03
93            	6.641658e-03	2.161559e-20	7.883333e-03	-1.970833e-04	-3.420159e-03	1.660415e-04	3.123746e-03	3.517913e-03	1.660415e-04	-1.660415e-04	5.215075e-04	7.361825e-03
94            	6.547224e-03	2.140068e-20	8.213524e-03	-2.053381e-04	-4.341280e-03	1.636806e-04	3.068274e-03	3.478950e-03	1.636806e-04	-1.636806e-04	-2.345180e-04	8.448042e-03
95            	6.552070e-03	2.094896e-20	8.239307e-03	-2.059827e-04	-4.397720e-03	1.638017e-04	3.070052e-03	3.482018e-03	1.638017e-04	-1.638017e-04	-2.780662e-04	8.517373e-03
96            	6.677102e-03	2.066757e-20	7.973569e-03	-1.993392e-04	-3.574600e-03	1.669276e-04	3.139212e-03	3.537890e-03	1.669276e-04	-1.669276e-04	4.121840e-04	7.561385e-03
97            	6.764663e-03	2.047025e-20	7.587315e-03	-1.896829e-04	-2.565125e-03	1.691166e-04	3.192649e-03	3.572014e-03	1.691166e-04	-1.691166e-04	1.228533e-03	6.358782e-03
98            	6.830450e-03	2.007193e-20	7.132548e-03	-1.783137e-04	-1.441562e-03	1.707613e-04	3.236911e-03	3.593539e-03	1.707613e-04	-1.707613e-04	2.124712e-03	5.007837e-03
99            	6.887884e-03	1.976166e-20	6.691173e-03	-1.672793e-04	-3.492364e-04	1.721971e-04	3.276663e-03	3.611222e-03	1.721971e-04	-1.721971e-04	2.996350e-03	3.694823e-03
100           	6.968657e-03	1.982409e-20	6.413732e-03	-1.603433e-04	4.266702e-04	1.742164e-04	3.323985e-03	3.644672e-03	1.742164e-04	-1.742164e-04	3.633536e-03	2.780196e-03
101           	7.025756e-03	2.001984e-20	6.390136e-03	-1.597534e-04	5.981873e-04	1.756439e-04	3.353124e-03	3.672631e-03	1.756439e-04	-1.756439e-04	3.793255e-03	2.596881e-03
102           	7.004399e-03	2.111891e-20	6.625354e-03	-1.656339e-04	4.851020e-05	1.751100e-04	3.336566e-03	3.667833e-03	1.751100e-04	-1.751100e-04	3.361187e-03	3.264167e-03
103           	6.889001e-03	2.123336e-20	7.027911e-03	-1.756978e-04	-1.053313e-03	1.722250e-04	3.268803e-03	3.620198e-03	1.722250e-04	-1.722250e-04	2.460643e-03	4.567269e-03
104           	6.765687e-03	2.153375e-20	7.499170e-03	-1.874792e-04	-2.327465e-03	1.691422e-04	3.195364e-03	3.570323e-03	1.691422e-04	-1.691422e-04	1.422120e-03	6.077050e-03
105           	6.631667e-03	2.158429e-20	7.933177e-03	-1.983294e-04	-3.550436e-03	1.657917e-04	3.117504e-03	3.514163e-03	1.657917e-04	-1.657917e-04	4.161531e-04	7.517024e-03
106           	6.542683e-03	2.132359e-20	8.236753e-03	-2.059188e-04	-4.402624e-03	1.635671e-04	3.065423e-03	3.477260e-03	1.635671e-04	-1.635671e-04	-2.842475e-04	8.521001e-03
107           	6.561635e-03	2.087209e-20	8.221378e-03	-2.055344e-04	-4.340559e-03	1.640409e-04	3.075283e-03	3.486352e-03	1.640409e-04	-1.640409e-04	-2.298700e-04	8.451248e-03
108           	6.692120e-03	2.051495e-20	7.923356e-03	-1.980839e-04	-3.436008e-03	1.673030e-04	3.147976e-03	3.544144e-03	1.673030e-04	-1.673030e-04	5.256697e-04	7.397686e-03
109           	6.769962e-03	2.035366e-20	7.527796e-03	-1.881949e-04	-2.425136e-03	1.692490e-04	3.196786e-03	3.573176e-03	1.692490e-04	-1.692490e-04	1.338762e-03	6.189035e-03
110           	6.832030e-03	1.997604e-20	7.073414e-03	-1.768353e-04	-1.307972e-03	1.708007e-04	3.239180e-03	3.592850e-03	1.708007e-04	-1.708007e-04	2.228734e-03	4.844679e-03
111           	6.893839e-03	1.971041e-20	6.639599e-03	-1.659900e-04	-2.237398e-04	1.723460e-04	3.280930e-03	3.612910e-03	1.723460e-04	-1.723460e-04	3.096060e-03	3.543539e-03
112           	6.971124e-03	1.979989e-20	6.383534e-03	-1.595883e-04	4.982307e-04	1.742781e-04	3.325974e-03	3.645150e-03	1.742781e-04	-1.742781e-04	3.689997e-03	2.693536e-03
113           	7.023228e-03	2.030114e-20	6.386625e-03	-1.596656e-04	6.013327e-04	1.755807e-04	3.351948e-03	3.671280e-03	1.755807e-04	-1.755807e-04	3.794645e-03	2.591980e-03
114           	6.993639e-03	2.107123e-20	6.644143e-03	-1.661036e-04	-1.332100e-05	1.748410e-04	3.330716e-03	3.662923e-03	1.748410e-04	-1.748410e-04	3.308750e-03	3.335392e-03
115           	6.873177e-03	2.127607e-20	7.058821e-03	-1.764705e-04	-1.151816e-03	1.718294e-04	3.260118e-03	3.613059e-03	1.718294e-04	-1.718294e-04	2.377595e-03	4.681226e-03
116           	6.749823e-03	2.154072e-20	7.532998e-03	-1.883249e-04	-2.432951e-03	1.687456e-04	3.186586e-03	3.563236e-03	1.687456e-04	-1.687456e-04	1.333548e-03	6.199449e-03
117           	6.618269e-03	2.156593e-20	7.963381e-03	-1.990845e-04	-3.644240e-03	1.654567e-04	3.110050e-03	3.508219e-03	1.654567e-04	-1.654567e-04	3.374503e-04	7.625930e-03
118           	6.536594e-03	2.126687e-20	8.242696e-03	-2.060674e-04	-4.428898e-03	1.634149e-04	3.062230e-03	3.474365e-03	1.634149e-04	-1.634149e-04	-3.075496e-04	8.550246e-03
119           	6.567504e-03	2.082724e-20	8.194867e-03	-2.048717e-04	-4.271621e-03	1.641876e-04	3.078880e-03	3.488624e-03	1.641876e-04	-1.641876e-04	-1.741880e-04	8.369055e-03
120           	6.706284e-03	2.047246e-20	7.877142e-03	-1.969286e-04	-3.307808e-03	1.676571e-04	3.156213e-03	3.550070e-03	1.676571e-04	-1.676571e-04	6.307633e-04	7.246379e-03
121           	6.800320e-03	2.020230e-20	7.472242e-03	-1.868060e-04	-2.243332e-03	1.700080e-04	3.213354e-03	3.586966e-03	1.700080e-04	-1.700080e-04	1.492789e-03	5.979453e-03
122           	6.851755e-03	1.984556e-20	7.019429e-03	-1.754857e-04	-1.147973e-03	1.712939e-04	3.250392e-03	3.601363e-03	1.712939e-04	-1.712939e-04	2.361741e-03	4.657687e-03
123           	6.908112e-03	1.965887e-20	6.606863e-03	-1.651716e-04	-1.213206e-04	1.727028e-04	3.288884e-03	3.619227e-03	1.727028e-04	-1.727028e-04	3.182111e-03	3.424752e-03
124           	6.974727e-03	1.979944e-20	6.387326e-03	-1.596832e-04	4.986543e-04	1.743682e-04	3.327680e-03	3.647047e-03	1.743682e-04	-1.743682e-04	3.692318e-03	2.695009e-03
125           	7.010177e-03	2.060135e-20	6.423502e-03	-1.605875e-04	4.954606e-04	1.752544e-04	3.344501e-03	3.665676e-03	1.752544e-04	-1.752544e-04	3.707212e-03	2.716290e-03
126           	6.960444e-03	2.074427e-20	6.695774e-03	-1.673943e-04	-1.917327e-04	1.740111e-04	3.312828e-03	3.647616e-03	1.740111e-04	-1.740111e-04	3.156154e-03	3.539620e-03
127           	6.839715e-03	2.127581e-20	7.122418e-03	-1.780605e-04	-1.357996e-03	1.709929e-04	3.241797e-03	3.597918e-03	1.709929e-04	-1.709929e-04	2.203213e-03	4.919205e-03
128           	6.728810e-03	2.154268e-20	7.599245e-03	-1.899811e-04	-2.620664e-03	1.682202e-04	3.174424e-03	3.554386e-03	1.682202e-04	-1.682202e-04	1.178958e-03	6.420287e-03
129           	6.614868e-03	2.152278e-20	8.025826e-03	-2.006456e-04	-3.790286e-03	1.653717e-04	3.106789e-03	3.508080e-03	1.653717e-04	-1.653717e-04	2.226267e-04	7.803199e-03
130           	6.551835e-03	2.119280e-20	8.262727e-03	-2.065682e-04	-4.445225e-03	1.637959e-04	3.069349e-03	3.482486e-03	1.637959e-04	-1.637959e-04	-3.138617e-04	8.576589e-03
131           	6.608501e-03	2.083503e-20	8.164604e-03	-2.041151e-04	-4.125540e-03	1.652125e-04	3.100135e-03	3.508365e-03	1.652125e-04	-1.652125e-04	-4.323847e-05	8.207842e-03
132           	6.739080e-03	2.055508e-20	7.821007e-03	-1.955252e-04	-3.122982e-03	1.684770e-04	3.174015e-03	3.565065e-03	1.684770e-04	-1.684770e-04	7.875215e-04	7.033485e-03
133           	6.825633e-03	2.022779e-20	7.404640e-03	-1.851160e-04	-2.047380e-03	1.706408e-04	3.227700e-03	3.597932e-03	1.706408e-04	-1.706408e-04	1.654940e-03	5.749700e-03
134           	6.882053e-03	1.984381e-20	6.965019e-03	-1.741255e-04	-9.669746e-04	1.720513e-04	3.266901e-03	3.615152e-03	1.720513e-04	-1.720513e-04	2.515535e-03	4.449484e-03
135           	6.944214e-03	1.967283e-20	6.578647e-03	-1.644662e-04	1.249556e-05	1.736053e-04	3.307641e-03	3.636573e-03	1.736053e-04	-1.736053e-04	3.301819e-03	3.276828e-03
136           	7.001749e-03	1.982697e-20	6.394811e-03	-1.598703e-04	5.360822e-04	1.750437e-04	3.341004e-03	3.660745e-03	1.750437e-04	-1.750437e-04	3.733488e-03	2.661323e-03
137           	7.037029e-03	2.011217e-20	6.472962e-03	-1.618240e-04	4.407028e-04	1.759257e-04	3.356691e-03	3.680339e-03	1.759257e-04	-1.759257e-04	3.677184e-03	2.795778e-03
138           	6.980924e-03	2.126660e-20	6.787479e-03	-1.696870e-04	-3.513344e-04	1.745231e-04	3.320775e-03	3.660149e-03	1.745231e-04	-1.745231e-04	3.042405e-03	3.745074e-03
139           	6.868563e-03	2.127546e-20	7.213340e-03	-1.803335e-04	-1.499543e-03	1.717141e-04	3.253948e-03	3.614615e-03	1.717141e-04	-1.717141e-04	2.107127e-03	5.106213e-03
140           	6.735147e-03	2.150024e-20	7.671470e-03	-1.917867e-04	-2.766704e-03	1.683787e-04	3.175787e-03	3.559360e-03	1.683787e-04	-1.683787e-04	1.069031e-03	6.602439e-03
141           	6.608786e-03	2.146419e-20	8.079322e-03	-2.019830e-04	-3.920904e-03	1.652196e-04	3.102410e-03	3.506376e-03	1.652196e-04	-1.652196e-04	1.187569e-04	7.960565e-03
142           	6.556360e-03	2.108692e-20	8.279196e-03	-2.069799e-04	-4.473504e-03	1.639090e-04	3.071200e-03	3.485160e-03	1.639090e-04	-1.639090e-04	-3.339058e-04	8.613101e-03
143           	6.622143e-03	2.072557e-20	8.149441e-03	-2.037360e-04	-4.065273e-03	1.655536e-04	3.107335e-03	3.514808e-03	1.655536e-04	-1.655536e-04	9.447986e-06	8.139993e-03
144           	6.738555e-03	2.046875e-20	7.788688e-03	-1.947172e-04	-3.053966e-03	1.684639e-04	3.174561e-03	3.563995e-03	1.684639e-04	-1.684639e-04	8.403781e-04	6.948310e-03
145           	6.828380e-03	2.012142e-20	7.367438e-03	-1.841859e-04	-1.960026e-03	1.707095e-04	3.230004e-03	3.598376e-03	1.707095e-04	-1.707095e-04	1.723692e-03	5.643745e-03
146           	6.869319e-03	1.979872e-20	6.920333e-03	-1.730083e-04	-8.921324e-04	1.717330e-04	3.261651e-03	3.607668e-03	1.717330e-04	-1.717330e-04	2.568034e-03	4.352299e-03
147           	6.935869e-03	1.973787e-20	6.550047e-03	-1.637512e-04	5.935442e-05	1.733967e-04	3.304183e-03	3.631686e-03	1.733967e-04	-1.733967e-04	3.334378e-03	3.215669e-03
148           	6.994933e-03	2.010201e-20	6.390494e-03	-1.597623e-04	5.321029e-04	1.748733e-04	3.337704e-03	3.657229e-03	1.748733e-04	-1.748733e-04	3.727350e-03	2.663144e-03
149           	7.023668e-03	2.092641e-20	6.496558e-03	-1.624140e-04	3.635015e-04	1.755917e-04	3.349420e-03	3.674248e-03	1.755917e-04	-1.755917e-04	3.611781e-03	2.884778e-03
150           	6.952071e-03	2.102910e-20	6.811873e-03	-1.702968e-04	-4.610151e-04	1.738018e-04	3.305739e-03	3.646332e-03	1.738018e-04	-1.738018e-04	2.944921e-03	3.866951e-03
151           	6.837045e-03	2.142508e-20	7.246657e-03	-1.811664e-04	-1.635527e-03	1.709261e-04	3.237356e-03	3.599689e-03	1.709261e-04	-1.709261e-04	1.987801e-03	5.258855e-03
152           	6.711106e-03	2.164073e-20	7.714513e-03	-1.928628e-04	-2.909321e-03	1.677776e-04	3.162690e-03	3.548416e-03	1.677776e-04	-1.677776e-04	9.479355e-04	6.766578e-03
153           	6.602050e-03	2.154254e-20	8.116703e-03	-2.029176e-04	-4.017488e-03	1.650513e-04	3.098108e-03	3.503943e-03	1.650513e-04	-1.650513e-04	4.086353e-05	8.075840e-03
154           	6.554951e-03	2.079155e-20	8.270186e-03	-2.067546e-04	-4.458241e-03	1.638738e-04	3.070721e-03	3.484230e-03	1.638738e-04	-1.638738e-04	-3.231478e-04	8.593334e-03
155           	6.635530e-03	2.060384e-20	8.101003e-03	-2.025251e-04	-3.934315e-03	1.658883e-04	3.115240e-03	3.520290e-03	1.658883e-04	-1.658883e-04	1.161870e-04	7.984816e-03
156           	6.748462e-03	2.045051e-20	7.743593e-03	-1.935898e-04	-2.937321e-03	1.687115e-04	3.180641e-03	3.567821e-03	1.687115e-04	-1.687115e-04	9.344757e-04	6.809117e-03
157           	6.827238e-03	2.007454e-20	7.321968e-03	-1.830492e-04	-1.864139e-03	1.706810e-04	3.230570e-03	3.596668e-03	1.706810e-04	-1.706810e-04	1.796845e-03	5.525123e-03
158           	6.868291e-03	1.974157e-20	6.871309e-03	-1.717827e-04	-7.871384e-04	1.717073e-04	3.262363e-03	3.605928e-03	1.717073e-04	-1.717073e-04	2.648516e-03	4.222793e-03
159           	6.939444e-03	1.973975e-20	6.495716e-03	-1.623929e-04	1.860894e-04	1.734861e-04	3.307329e-03	3.632115e-03	1.734861e-04	-1.734861e-04	3.433947e-03	3.061768e-03
160           	7.008683e-03	2.015764e-20	6.364073e-03	-1.591018e-04	6.181671e-04	1.752171e-04	3.345240e-03	3.663443e-03	1.752171e-04	-1.752171e-04	3.800203e-03	2.563869e-03
161           	7.033974e-03	2.114295e-20	6.515191e-03	-1.628798e-04	3.447499e-04	1.758493e-04	3.354107e-03	3.679867e-03	1.758493e-04	-1.758493e-04	3.602345e-03	2.912846e-03
162           	6.951399e-03	2.118156e-20	6.868022e-03	-1.717005e-04	-5.830833e-04	1.737850e-04	3.303999e-03	3.647400e-03	1.737850e-04	-1.737850e-04	2.850928e-03	4.017094e-03
163           	6.831318e-03	2.154583e-20	7.324283e-03	-1.831071e-04	-1.815257e-03	1.707829e-04	3.232552e-03	3.598766e-03	1.707829e-04	-1.707829e-04	1.846884e-03	5.477399e-03
164           	6.699667e-03	2.172605e-20	7.797549e-03	-1.949387e-04	-3.114065e-03	1.674917e-04	3.154895e-03	3.544772e-03	1.674917e-04	-1.674917e-04	7.847099e-04	7.012839e-03
165           	6.594706e-03	2.152385e-20	8.183234e-03	-2.045809e-04	-4.178517e-03	1.648677e-04	3.092772e-03	3.501934e-03	1.648677e-04	-1.648677e-04	-8.689953e-05	8.270134e-03
166           	6.560584e-03	2.044157e-20	8.276418e-03	-2.069104e-04	-4.460439e-03	1.640146e-04	3.073381e-03	3.487202e-03	1.640146e-04	-1.640146e-04	-3.222300e-04	8.598648e-03
167           	6.657704e-03	2.052307e-20	8.060372e-03	-2.015093e-04	-3.802256e-03	1.664426e-04	3.127342e-03	3.530361e-03	1.664426e-04	-1.664426e-04	2.279295e-04	7.832442e-03
168           	6.764134e-03	2.037909e-20	7.682602e-03	-1.920650e-04	-2.774182e-03	1.691034e-04	3.190002e-03	3.574132e-03	1.691034e-04	-1.691034e-04	1.067119e-03	6.615483e-03