# Force coefficients
# dragDir     : (1.000000e+00 0.000000e+00 0.000000e+00)
# sideDir     : (0.000000e+00 0.000000e+00 -1.000000e+00)
# liftDir     : (0.000000e+00 1.000000e+00 0.000000e+00)
# rollAxis    : (1.000000e+00 0.000000e+00 0.000000e+00)
# pitchAxis   : (0.000000e+00 0.000000e+00 -1.000000e+00)
# yawAxis     : (0.000000e+00 1.000000e+00 0.000000e+00)
# magUInf     : 6.000000e-02
# lRef        : 1.000000e-01
# Aref        : 1.000000e-01
# CofR        : (0.000000e+00 0.000000e+00 0.000000e+00)
#
# Time        	Cd            	Cs            	Cl            	CmRoll        	CmPitch       	CmYaw         	Cd(f)         	Cd(r)         	Cs(f)         	Cs(r)         	Cl(f)         	Cl(r)         
1             	2.366587e-03	-9.546748e-21	1.173307e-03	-2.933268e-05	2.193519e-03	5.916468e-05	1.153961e-03	1.212626e-03	5.916468e-05	-5.916468e-05	2.780172e-03	-1.606865e-03
2             	1.315963e-02	-3.663459e-20	6.434855e-03	-1.608714e-04	1.217192e-02	3.289906e-04	6.418942e-03	6.740684e-03	3.289906e-04	-3.289906e-04	1.538935e-02	-8.954496e-03
3             	1.435379e-02	-5.498662e-20	8.681501e-03	-2.170375e-04	1.023308e-02	3.588448e-04	6.959859e-03	7.393934e-03	3.588448e-04	-3.588448e-04	1.457383e-02	-5.892325e-03
4             	1.299746e-02	-3.190229e-20	9.843628e-03	-2.460907e-04	5.604877e-03	3.249365e-04	6.252640e-03	6.744821e-03	3.249365e-04	-3.249365e-04	1.052669e-02	-6.830633e-04
5             	1.215300e-02	-1.775553e-20	1.066624e-02	-2.666559e-04	2.497960e-03	3.038250e-04	5.809845e-03	6.343157e-03	3.038250e-04	-3.038250e-04	7.831079e-03	2.835158e-03
6             	1.191142e-02	-1.635193e-20	1.114210e-02	-2.785526e-04	1.203281e-03	2.977855e-04	5.677158e-03	6.234263e-03	2.977855e-04	-2.977855e-04	6.774332e-03	4.367770e-03
7             	1.218183e-02	-1.928244e-20	1.140988e-02	-2.852470e-04	1.233553e-03	3.045456e-04	5.805666e-03	6.376160e-03	3.045456e-04	-3.045456e-04	6.938493e-03	4.471387e-03
8             	1.235469e-02	-2.188012e-20	1.132730e-02	-2.831825e-04	1.704843e-03	3.088672e-04	5.894161e-03	6.460526e-03	3.088672e-04	-3.088672e-04	7.368493e-03	3.958808e-03
9             	1.293246e-02	-2.300115e-20	1.117924e-02	-2.794809e-04	3.033032e-03	3.233115e-04	6.186749e-03	6.745711e-03	3.233115e-04	-3.233115e-04	8.622649e-03	2.556586e-03
10            	1.329570e-02	-2.412908e-20	1.082791e-02	-2.706977e-04	4.317977e-03	3.323926e-04	6.377154e-03	6.918550e-03	3.323926e-04	-3.323926e-04	9.731932e-03	1.095977e-03
11            	1.321830e-02	-2.453397e-20	1.033993e-02	-2.584982e-04	5.043662e-03	3.304574e-04	6.350650e-03	6.867647e-03	3.304574e-04	-3.304574e-04	1.021363e-02	1.263021e-04
12            	1.302458e-02	-2.452249e-20	9.803984e-03	-2.450996e-04	5.675777e-03	3.256145e-04	6.267190e-03	6.757390e-03	3.256145e-04	-3.256145e-04	1.057777e-02	-7.737855e-04
13            	1.281914e-02	-2.384995e-20	9.226366e-03	-2.306592e-04	6.410943e-03	3.204784e-04	6.178909e-03	6.640227e-03	3.204784e-04	-3.204784e-04	1.102413e-02	-1.797759e-03
14            	1.274823e-02	-2.293022e-20	8.674529e-03	-2.168632e-04	7.366170e-03	3.187058e-04	6.157254e-03	6.590980e-03	3.187058e-04	-3.187058e-04	1.170343e-02	-3.028905e-03
15            	1.262734e-02	-2.233809e-20	8.189546e-03	-2.047387e-04	8.073348e-03	3.156836e-04	6.108932e-03	6.518410e-03	3.156836e-04	-3.156836e-04	1.216812e-02	-3.978575e-03
16            	1.229228e-02	-2.143678e-20	7.722663e-03	-1.930666e-04	8.346988e-03	3.073071e-04	5.953075e-03	6.339209e-03	3.073071e-04	-3.073071e-04	1.220832e-02	-4.485657e-03
17            	1.187315e-02	-2.090031e-20	7.362282e-03	-1.840570e-04	8.275913e-03	2.968286e-04	5.752516e-03	6.120630e-03	2.968286e-04	-2.968286e-04	1.195705e-02	-4.594772e-03
18            	1.141290e-02	-2.042096e-20	7.131990e-03	-1.782997e-04	7.883590e-03	2.853226e-04	5.528152e-03	5.884751e-03	2.853226e-04	-2.853226e-04	1.144958e-02	-4.317595e-03
19            	1.097518e-02	-1.997313e-20	7.164778e-03	-1.791194e-04	7.055585e-03	2.743796e-04	5.308473e-03	5.666711e-03	2.743796e-04	-2.743796e-04	1.063797e-02	-3.473196e-03
20            	1.069331e-02	-1.981365e-20	7.432948e-03	-1.858237e-04	6.075345e-03	2.673328e-04	5.160832e-03	5.532479e-03	2.673328e-04	-2.673328e-04	9.791819e-03	-2.358872e-03
21            	1.057231e-02	-1.979520e-20	7.909658e-03	-1.977415e-04	5.012155e-03	2.643077e-04	5.088413e-03	5.483896e-03	2.643077e-04	-2.643077e-04	8.966984e-03	-1.057326e-03
22            	1.060529e-02	-1.982614e-20	8.527424e-03	-2.131856e-04	3.963633e-03	2.651323e-04	5.089461e-03	5.515832e-03	2.651323e-04	-2.651323e-04	8.227345e-03	3.000786e-04
23            	1.078359e-02	-1.973579e-20	9.195375e-03	-2.298844e-04	3.054792e-03	2.695896e-04	5.161908e-03	5.621677e-03	2.695896e-04	-2.695896e-04	7.652480e-03	1.542895e-03
24            	1.107861e-02	-1.987933e-20	9.726528e-03	-2.431632e-04	2.592667e-03	2.769654e-04	5.296144e-03	5.782470e-03	2.769654e-04	-2.769654e-04	7.455931e-03	2.270597e-03
25            	1.155604e-02	-2.042084e-20	1.001288e-02	-2.503219e-04	2.879236e-03	2.889010e-04	5.527699e-03	6.028343e-03	2.889010e-04	-2.889010e-04	7.885674e-03	2.127202e-03
26            	1.206380e-02	-2.068793e-20	1.000881e-02	-2.502204e-04	3.728673e-03	3.015951e-04	5.781681e-03	6.282122e-03	3.015951e-04	-3.015951e-04	8.733080e-03	1.275735e-03
27            	1.244398e-02	-2.063246e-20	9.763034e-03	-2.440759e-04	4.784421e-03	3.110996e-04	5.977916e-03	6.466068e-03	3.110996e-04	-3.110996e-04	9.665939e-03	9.709567e-05
28            	1.266850e-02	-2.087089e-20	9.359394e-03	-2.339848e-04	5.883358e-03	3.167125e-04	6.100265e-03	6.568234e-03	3.167125e-04	-3.167125e-04	1.056306e-02	-1.203661e-03
29            	1.276349e-02	-2.111044e-20	8.962480e-03	-2.240620e-04	6.813216e-03	3.190872e-04	6.157681e-03	6.605805e-03	3.190872e-04	-3.190872e-04	1.129446e-02	-2.331975e-03
30            	1.287334e-02	-2.238581e-20	8.676877e-03	-2.169219e-04	7.554309e-03	3.218335e-04	6.219749e-03	6.653592e-03	3.218335e-04	-3.218335e-04	1.189275e-02	-3.215871e-03
31            	1.277579e-02	-2.321034e-20	8.547486e-03	-2.136872e-04	7.622419e-03	3.193948e-04	6.174209e-03	6.601583e-03	3.193948e-04	-3.193948e-04	1.189616e-02	-3.348675e-03
32            	1.250483e-02	-2.366425e-20	8.583368e-03	-2.145842e-04	7.085200e-03	3.126208e-04	6.037832e-03	6.467000e-03	3.126208e-04	-3.126208e-04	1.137688e-02	-2.793517e-03
33            	1.220846e-02	-2.383422e-20	8.773654e-03	-2.193413e-04	6.223637e-03	3.052116e-04	5.884891e-03	6.323574e-03	3.052116e-04	-3.052116e-04	1.061046e-02	-1.836810e-03
34            	1.192960e-02	-2.405418e-20	9.120330e-03	-2.280083e-04	5.121374e-03	2.982400e-04	5.736792e-03	6.192809e-03	2.982400e-04	-2.982400e-04	9.681539e-03	-5.612087e-04
35            	1.171806e-02	-2.428456e-20	9.579909e-03	-2.394977e-04	3.938904e-03	2.929514e-04	5.619531e-03	6.098526e-03	2.929514e-04	-2.929514e-04	8.728858e-03	8.510505e-04
36            	1.171981e-02	-2.436282e-20	1.005592e-02	-2.513979e-04	3.097025e-03	2.929954e-04	5.608509e-03	6.111305e-03	2.929954e-04	-2.929954e-04	8.124982e-03	1.930933e-03
37            	1.186418e-02	-2.356577e-20	1.050679e-02	-2.626699e-04	2.550351e-03	2.966044e-04	5.669418e-03	6.194758e-03	2.966044e-04	-2.966044e-04	7.803749e-03	2.703046e-03
38            	1.211005e-02	-2.263364e-20	1.080960e-02	-2.702399e-04	2.445460e-03	3.027512e-04	5.784785e-03	6.325265e-03	3.027512e-04	-3.027512e-04	7.850258e-03	2.959338e-03
39            	1.247454e-02	-2.152520e-20	1.087358e-02	-2.718394e-04	2.947730e-03	3.118634e-04	5.965428e-03	6.509107e-03	3.118634e-04	-3.118634e-04	8.384519e-03	2.489059e-03
40            	1.295179e-02	-2.085620e-20	1.070881e-02	-2.677202e-04	4.052655e-03	3.237948e-04	6.208176e-03	6.743616e-03	3.237948e-04	-3.237948e-04	9.407059e-03	1.301749e-03
41            	1.326611e-02	-2.062950e-20	1.030532e-02	-2.576331e-04	5.278404e-03	3.316527e-04	6.375422e-03	6.890688e-03	3.316527e-04	-3.316527e-04	1.043107e-02	-1.257428e-04
42            	1.338477e-02	-2.059663e-20	9.786028e-03	-2.446507e-04	6.382756e-03	3.346193e-04	6.447736e-03	6.937037e-03	3.346193e-04	-3.346193e-04	1.127577e-02	-1.489742e-03
43            	1.341178e-02	-2.025711e-20	9.221676e-03	-2.305419e-04	7.470838e-03	3.352944e-04	6.475346e-03	6.936430e-03	3.352944e-04	-3.352944e-04	1.208168e-02	-2.860000e-03
44            	1.351844e-02	-2.056054e-20	8.762126e-03	-2.190531e-04	8.533508e-03	3.379610e-04	6.540168e-03	6.978274e-03	3.379610e-04	-3.379610e-04	1.291457e-02	-4.152445e-03
45            	1.352936e-02	-2.079222e-20	8.394916e-03	-2.098729e-04	9.241228e-03	3.382340e-04	6.554807e-03	6.974553e-03	3.382340e-04	-3.382340e-04	1.343869e-02	-5.043770e-03
46            	1.334921e-02	-2.107169e-20	8.147799e-03	-2.036950e-04	9.398758e-03	3.337302e-04	6.470909e-03	6.878299e-03	3.337302e-04	-3.337302e-04	1.347266e-02	-5.324859e-03
47            	1.291027e-02	-2.164186e-20	8.144690e-03	-2.036172e-04	8.651437e-03	3.227567e-04	6.251516e-03	6.658751e-03	3.227567e-04	-3.227567e-04	1.272378e-02	-4.579092e-03
48            	1.246988e-02	-2.188480e-20	8.406039e-03	-2.101510e-04	7.419583e-03	3.117469e-04	6.024788e-03	6.445090e-03	3.117469e-04	-3.117469e-04	1.162260e-02	-3.216563e-03
49            	1.216349e-02	-2.199183e-20	8.936029e-03	-2.234007e-04	5.949214e-03	3.040872e-04	5.858343e-03	6.305144e-03	3.040872e-04	-3.040872e-04	1.041723e-02	-1.481199e-03
50            	1.205166e-02	-2.190161e-20	9.633610e-03	-2.408403e-04	4.511646e-03	3.012915e-04	5.784989e-03	6.266670e-03	3.012915e-04	-3.012915e-04	9.328451e-03	3.051596e-04
51            	1.203561e-02	-2.157195e-20	1.037652e-02	-2.594131e-04	3.135665e-03	3.008902e-04	5.758391e-03	6.277217e-03	3.008902e-04	-3.008902e-04	8.323927e-03	2.052598e-03
52            	1.220441e-02	-2.140555e-20	1.099535e-02	-2.748837e-04	2.302738e-03	3.051102e-04	5.827320e-03	6.377087e-03	3.051102e-04	-3.051102e-04	7.800411e-03	3.194936e-03
53            	1.252736e-02	-2.138642e-20	1.126729e-02	-2.816822e-04	2.352893e-03	3.131841e-04	5.981999e-03	6.545363e-03	3.131841e-04	-3.131841e-04	7.986537e-03	3.280752e-03
54            	1.309679e-02	-2.127828e-20	1.124241e-02	-2.810602e-04	3.343489e-03	3.274198e-04	6.267336e-03	6.829456e-03	3.274198e-04	-3.274198e-04	8.964693e-03	2.277714e-03
55            	1.369033e-02	-2.154493e-20	1.096065e-02	-2.740161e-04	4.832677e-03	3.422583e-04	6.571149e-03	7.119182e-03	3.422583e-04	-3.422583e-04	1.031300e-02	6.476458e-04
56            	1.401163e-02	-2.195610e-20	1.042966e-02	-2.607416e-04	6.290992e-03	3.502908e-04	6.745074e-03	7.266557e-03	3.502908e-04	-3.502908e-04	1.150582e-02	-1.076161e-03
57            	1.408171e-02	-2.182626e-20	9.850881e-03	-2.462720e-04	7.448142e-03	3.520427e-04	6.794581e-03	7.287125e-03	3.520427e-04	-3.520427e-04	1.237358e-02	-2.522701e-03
58            	1.414515e-02	-2.175654e-20	9.324531e-03	-2.331133e-04	8.574901e-03	3.536287e-04	6.839460e-03	7.305687e-03	3.536287e-04	-3.536287e-04	1.323717e-02	-3.912636e-03
59            	1.420400e-02	-2.215124e-20	8.922688e-03	-2.230672e-04	9.433179e-03	3.551000e-04	6.878933e-03	7.325068e-03	3.551000e-04	-3.551000e-04	1.389452e-02	-4.971834e-03
60            	1.401946e-02	-2.210227e-20	8.574190e-03	-2.143547e-04	9.765134e-03	3.504865e-04	6.795376e-03	7.224085e-03	3.504865e-04	-3.504865e-04	1.405223e-02	-5.478039e-03
61            	1.354657e-02	-2.214953e-20	8.436592e-03	-2.109148e-04	9.208273e-03	3.386644e-04	6.562372e-03	6.984202e-03	3.386644e-04	-3.386644e-04	1.342657e-02	-4.989977e-03
62            	1.300965e-02	-2.217106e-20	8.551473e-03	-2.137868e-04	8.071705e-03	3.252414e-04	6.291040e-03	6.718614e-03	3.252414e-04	-3.252414e-04	1.234744e-02	-3.795968e-03
63            	1.254806e-02	-2.222549e-20	8.937049e-03	-2.234262e-04	6.586950e-03	3.137016e-04	6.050605e-03	6.497458e-03	3.137016e-04	-3.137016e-04	1.105547e-02	-2.118426e-03
64            	1.227523e-02	-2.212504e-20	9.519201e-03	-2.379800e-04	5.086100e-03	3.068808e-04	5.899637e-03	6.375597e-03	3.068808e-04	-3.068808e-04	9.845700e-03	-3.264995e-04
65            	1.211995e-02	-2.182555e-20	1.020308e-02	-2.550771e-04	3.594126e-03	3.029989e-04	5.804900e-03	6.315054e-03	3.029989e-04	-3.029989e-04	8.695667e-03	1.507415e-03
66            	1.215894e-02	-2.148977e-20	1.092054e-02	-2.730135e-04	2.360770e-03	3.039734e-04	5.806454e-03	6.352481e-03	3.039734e-04	-3.039734e-04	7.821040e-03	3.099501e-03
67            	1.242510e-02	-2.161328e-20	1.138219e-02	-2.845548e-04	1.990680e-03	3.106274e-04	5.927994e-03	6.497103e-03	3.106274e-04	-3.106274e-04	7.681775e-03	3.700416e-03
68            	1.290634e-02	-2.145011e-20	1.155274e-02	-2.888186e-04	2.489294e-03	3.226585e-04	6.164351e-03	6.741989e-03	3.226585e-04	-3.226585e-04	8.265666e-03	3.287079e-03
69            	1.358937e-02	-2.143089e-20	1.144546e-02	-2.861365e-04	3.830441e-03	3.397343e-04	6.508549e-03	7.080822e-03	3.397343e-04	-3.397343e-04	9.553170e-03	1.892288e-03
70            	1.408340e-02	-2.187163e-20	1.102848e-02	-2.757121e-04	5.372471e-03	3.520849e-04	6.765986e-03	7.317411e-03	3.520849e-04	-3.520849e-04	1.088671e-02	1.417701e-04
71            	1.432646e-02	-2.209265e-20	1.040237e-02	-2.600591e-04	6.864012e-03	3.581616e-04	6.903173e-03	7.423291e-03	3.581616e-04	-3.581616e-04	1.206519e-02	-1.662830e-03
72            	1.438576e-02	-2.153093e-20	9.744119e-03	-2.436030e-04	8.184345e-03	3.596439e-04	6.949276e-03	7.436482e-03	3.596439e-04	-3.596439e-04	1.305640e-02	-3.312285e-03
73            	1.447403e-02	-2.186680e-20	9.215012e-03	-2.303753e-04	9.358314e-03	3.618508e-04	7.006641e-03	7.467391e-03	3.618508e-04	-3.618508e-04	1.396582e-02	-4.750808e-03
74            	1.443325e-02	-2.213732e-20	8.793446e-03	-2.198362e-04	1.008162e-02	3.608313e-04	6.996791e-03	7.436463e-03	3.608313e-04	-3.608313e-04	1.447834e-02	-5.684898e-03
75            	1.411833e-02	-2.215351e-20	8.493677e-03	-2.123419e-04	1.009930e-02	3.529582e-04	6.846821e-03	7.271505e-03	3.529582e-04	-3.529582e-04	1.434614e-02	-5.852465e-03
76            	1.354994e-02	-2.230203e-20	8.445241e-03	-2.111310e-04	9.208178e-03	3.387484e-04	6.563837e-03	6.986099e-03	3.387484e-04	-3.387484e-04	1.343080e-02	-4.985558e-03
77            	1.299678e-02	-2.242534e-20	8.676623e-03	-2.169156e-04	7.835992e-03	3.249195e-04	6.281475e-03	6.715306e-03	3.249195e-04	-3.249195e-04	1.217430e-02	-3.497680e-03
78            	1.257291e-02	-2.249726e-20	9.184732e-03	-2.296183e-04	6.206510e-03	3.143228e-04	6.056837e-03	6.516074e-03	3.143228e-04	-3.143228e-04	1.079888e-02	-1.614144e-03
79            	1.235590e-02	-2.227189e-20	9.867177e-03	-2.466794e-04	4.623030e-03	3.088976e-04	5.931272e-03	6.424630e-03	3.088976e-04	-3.088976e-04	9.556619e-03	3.105583e-04
80            	1.225249e-02	-2.182070e-20	1.062216e-02	-2.655541e-04	3.079088e-03	3.063122e-04	5.860690e-03	6.391799e-03	3.063122e-04	-3.063122e-04	8.390170e-03	2.231994e-03
81            	1.235956e-02	-2.145804e-20	1.130473e-02	-2.826181e-04	2.019388e-03	3.089891e-04	5.897163e-03	6.462399e-03	3.089891e-04	-3.089891e-04	7.671750e-03	3.632975e-03
82            	1.268489e-02	-2.157422e-20	1.164562e-02	-2.911405e-04	1.957432e-03	3.171221e-04	6.051302e-03	6.633583e-03	3.171221e-04	-3.171221e-04	7.780241e-03	3.865377e-03
83            	1.327749e-02	-2.136512e-20	1.167802e-02	-2.919505e-04	2.889011e-03	3.319373e-04	6.346794e-03	6.930696e-03	3.319373e-04	-3.319373e-04	8.728022e-03	2.950000e-03
84            	1.398462e-02	-2.162267e-20	1.145988e-02	-2.864969e-04	4.464959e-03	3.496156e-04	6.705815e-03	7.278809e-03	3.496156e-04	-3.496156e-04	1.019490e-02	1.264979e-03
85            	1.439441e-02	-2.225075e-20	1.093468e-02	-2.733669e-04	6.051485e-03	3.598603e-04	6.923840e-03	7.470574e-03	3.598603e-04	-3.598603e-04	1.151882e-02	-5.841459e-04
86            	1.454784e-02	-2.226039e-20	1.024944e-02	-2.562359e-04	7.511139e-03	3.636960e-04	7.017684e-03	7.530156e-03	3.636960e-04	-3.636960e-04	1.263586e-02	-2.386420e-03
87            	1.456978e-02	-2.161288e-20	9.584992e-03	-2.396248e-04	8.834458e-03	3.642445e-04	7.045265e-03	7.524514e-03	3.642445e-04	-3.642445e-04	1.362695e-02	-4.041962e-03
88            	1.461730e-02	-2.252991e-20	9.097021e-03	-2.274255e-04	9.850446e-03	3.654324e-04	7.081222e-03	7.536073e-03	3.654324e-04	-3.654324e-04	1.439896e-02	-5.301936e-03
89            	1.450820e-02	-2.239967e-20	8.656158e-03	-2.164039e-04	1.047614e-02	3.627049e-04	7.037694e-03	7.470502e-03	3.627049e-04	-3.627049e-04	1.480422e-02	-6.148057e-03
90            	1.398453e-02	-2.245332e-20	8.413534e-03	-2.103383e-04	1.002149e-02	3.496132e-04	6.781925e-03	7.202602e-03	3.496132e-04	-3.496132e-04	1.422825e-02	-5.814721e-03
91            	1.337792e-02	-2.242325e-20	8.460839e-03	-2.115210e-04	8.885155e-03	3.344481e-04	6.477442e-03	6.900483e-03	3.344481e-04	-3.344481e-04	1.311557e-02	-4.654736e-03
92            	1.286510e-02	-2.242372e-20	8.822413e-03	-2.205603e-04	7.352812e-03	3.216276e-04	6.211992e-03	6.653112e-03	3.216276e-04	-3.216276e-04	1.176402e-02	-2.941606e-03
93            	1.251844e-02	-2.235316e-20	9.447160e-03	-2.361790e-04	5.652231e-03	3.129611e-04	6.023042e-03	6.495400e-03	3.129611e-04	-3.129611e-04	1.037581e-02	-9.286506e-04
94            	1.236685e-02	-2.201953e-20	1.019634e-02	-2.549084e-04	4.054493e-03	3.091713e-04	5.928517e-03	6.438334e-03	3.091713e-04	-3.091713e-04	9.152661e-03	1.043676e-03
95            	1.233494e-02	-2.174515e-20	1.097902e-02	-2.744756e-04	2.572176e-03	3.083735e-04	5.892994e-03	6.441946e-03	3.083735e-04	-3.083735e-04	8.061687e-03	2.917336e-03
96            	1.255463e-02	-2.176765e-20	1.152932e-02	-2.882329e-04	1.953119e-03	3.138657e-04	5.989082e-03	6.565548e-03	3.138657e-04	-3.138657e-04	7.717777e-03	3.811538e-03
97            	1.297004e-02	-2.164317e-20	1.174764e-02	-2.936911e-04	2.249644e-03	3.242510e-04	6.191330e-03	6.778712e-03	3.242510e-04	-3.242510e-04	8.123465e-03	3.624178e-03
98            	1.366531e-02	-2.140022e-20	1.168958e-02	-2.922394e-04	3.518654e-03	3.416328e-04	6.540416e-03	7.124895e-03	3.416328e-04	-3.416328e-04	9.363442e-03	2.326135e-03
99            	1.428741e-02	-2.177480e-20	1.135949e-02	-2.839872e-04	5.139086e-03	3.571853e-04	6.859719e-03	7.427694e-03	3.571853e-04	-3.571853e-04	1.081883e-02	5.406582e-04
100           	1.456762e-02	-2.236718e-20	1.074912e-02	-2.687280e-04	6.656917e-03	3.641905e-04	7.015081e-03	7.552537e-03	3.641905e-04	-3.641905e-04	1.203148e-02	-1.282356e-03
101           	1.463578e-02	-2.212748e-20	1.005775e-02	-2.514436e-04	8.018651e-03	3.658945e-04	7.066447e-03	7.569334e-03	3.658945e-04	-3.658945e-04	1.304752e-02	-2.989778e-03
102           	1.469209e-02	-2.214138e-20	9.446767e-03	-2.361692e-04	9.303099e-03	3.673023e-04	7.109878e-03	7.582216e-03	3.673023e-04	-3.673023e-04	1.402648e-02	-4.579715e-03
103           	1.473057e-02	-2.253668e-20	8.968426e-03	-2.242106e-04	1.027412e-02	3.682642e-04	7.141073e-03	7.589494e-03	3.682642e-04	-3.682642e-04	1.475833e-02	-5.789904e-03
104           	1.446039e-02	-2.243720e-20	8.562457e-03	-2.140614e-04	1.056779e-02	3.615097e-04	7.016134e-03	7.444256e-03	3.615097e-04	-3.615097e-04	1.484902e-02	-6.286562e-03
105           	1.387237e-02	-2.242954e-20	8.417700e-03	-2.104425e-04	9.820396e-03	3.468092e-04	6.725742e-03	7.146627e-03	3.468092e-04	-3.468092e-04	1.402925e-02	-5.611546e-03
106           	1.327071e-02	-2.238264e-20	8.561603e-03	-2.140401e-04	8.518327e-03	3.317678e-04	6.421317e-03	6.849397e-03	3.317678e-04	-3.317678e-04	1.279913e-02	-4.237525e-03
107           	1.276702e-02	-2.242450e-20	8.991679e-03	-2.247920e-04	6.885529e-03	3.191755e-04	6.158719e-03	6.608303e-03	3.191755e-04	-3.191755e-04	1.138137e-02	-2.389690e-03
108           	1.247995e-02	-2.230506e-20	9.623986e-03	-2.405997e-04	5.273283e-03	3.119986e-04	5.999373e-03	6.480573e-03	3.119986e-04	-3.119986e-04	1.008528e-02	-4.612901e-04
109           	1.231167e-02	-2.199103e-20	1.036635e-02	-2.591587e-04	3.651535e-03	3.077918e-04	5.896677e-03	6.414994e-03	3.077918e-04	-3.077918e-04	8.834709e-03	1.531639e-03
110           	1.232500e-02	-2.164625e-20	1.113422e-02	-2.783555e-04	2.271936e-03	3.081251e-04	5.884146e-03	6.440857e-03	3.081251e-04	-3.081251e-04	7.839046e-03	3.295174e-03
111           	1.259405e-02	-2.177901e-20	1.162148e-02	-2.905371e-04	1.853612e-03	3.148513e-04	6.006488e-03	6.587562e-03	3.148513e-04	-3.148513e-04	7.664353e-03	3.957130e-03
112           	1.309969e-02	-2.159388e-20	1.178284e-02	-2.945711e-04	2.406363e-03	3.274922e-04	6.255273e-03	6.844415e-03	3.274922e-04	-3.274922e-04	8.297784e-03	3.485059e-03
113           	1.383445e-02	-2.160565e-20	1.167623e-02	-2.919058e-04	3.833611e-03	3.458612e-04	6.625318e-03	7.209129e-03	3.458612e-04	-3.458612e-04	9.671726e-03	2.004504e-03
114           	1.435248e-02	-2.212737e-20	1.124976e-02	-2.812439e-04	5.430946e-03	3.588120e-04	6.894996e-03	7.457484e-03	3.588120e-04	-3.588120e-04	1.105583e-02	1.939325e-04
115           	1.459506e-02	-2.238673e-20	1.060122e-02	-2.650305e-04	6.959596e-03	3.648764e-04	7.032498e-03	7.562559e-03	3.648764e-04	-3.648764e-04	1.226021e-02	-1.658985e-03
116           	1.464601e-02	-2.184008e-20	9.906275e-03	-2.476569e-04	8.330283e-03	3.661503e-04	7.075350e-03	7.570664e-03	3.661503e-04	-3.661503e-04	1.328342e-02	-3.377146e-03
117           	1.471609e-02	-2.216331e-20	9.332672e-03	-2.333168e-04	9.557268e-03	3.679022e-04	7.124727e-03	7.591360e-03	3.679022e-04	-3.679022e-04	1.422360e-02	-4.890932e-03
118           	1.473010e-02	-2.238644e-20	8.841663e-03	-2.210416e-04	1.051023e-02	3.682525e-04	7.144008e-03	7.586091e-03	3.682525e-04	-3.682525e-04	1.493106e-02	-6.089396e-03
119           	1.431122e-02	-2.246099e-20	8.495256e-03	-2.123814e-04	1.043380e-02	3.577806e-04	6.943230e-03	7.367993e-03	3.577806e-04	-3.577806e-04	1.468143e-02	-6.186175e-03
120           	1.373274e-02	-2.244524e-20	8.397096e-03	-2.099274e-04	9.613113e-03	3.433184e-04	6.656440e-03	7.076295e-03	3.433184e-04	-3.433184e-04	1.381166e-02	-5.414565e-03
121           	1.314563e-02	-2.245654e-20	8.581728e-03	-2.145432e-04	8.264713e-03	3.286408e-04	6.358274e-03	6.787360e-03	3.286408e-04	-3.286408e-04	1.255558e-02	-3.973848e-03
122           	1.268757e-02	-2.253301e-20	9.054453e-03	-2.263613e-04	6.639044e-03	3.171894e-04	6.117426e-03	6.570148e-03	3.171894e-04	-3.171894e-04	1.116627e-02	-2.111818e-03
123           	1.244581e-02	-2.232661e-20	9.726815e-03	-2.431704e-04	5.034837e-03	3.111454e-04	5.979737e-03	6.466078e-03	3.111454e-04	-3.111454e-04	9.898245e-03	-1.714293e-04
124           	1.231613e-02	-2.189692e-20	1.049372e-02	-2.623429e-04	3.431043e-03	3.079033e-04	5.895724e-03	6.420409e-03	3.079033e-04	-3.079033e-04	8.677901e-03	1.815814e-03
125           	1.236940e-02	-2.136757e-20	1.124519e-02	-2.811298e-04	2.146940e-03	3.092350e-04	5.903570e-03	6.465830e-03	3.092350e-04	-3.092350e-04	7.769536e-03	3.475656e-03
126           	1.266960e-02	-2.166440e-20	1.168149e-02	-2.920373e-04	1.872896e-03	3.167400e-04	6.042762e-03	6.626837e-03	3.167400e-04	-3.167400e-04	7.713642e-03	3.967850e-03
127           	1.321301e-02	-2.146619e-20	1.178324e-02	-2.945809e-04	2.595534e-03	3.303252e-04	6.311923e-03	6.901085e-03	3.303252e-04	-3.303252e-04	8.487152e-03	3.296085e-03
128           	1.395078e-02	-2.160783e-20	1.163288e-02	-2.908220e-04	4.103307e-03	3.487696e-04	6.684569e-03	7.266213e-03	3.487696e-04	-3.487696e-04	9.919747e-03	1.713132e-03
129           	1.442420e-02	-2.221393e-20	1.115641e-02	-2.789103e-04	5.710607e-03	3.606050e-04	6.933190e-03	7.491011e-03	3.606050e-04	-3.606050e-04	1.128881e-02	-1.324005e-04
130           	1.463367e-02	-2.236671e-20	1.047172e-02	-2.617930e-04	7.252154e-03	3.658419e-04	7.055044e-03	7.578630e-03	3.658419e-04	-3.658419e-04	1.248802e-02	-2.016294e-03
131           	1.466794e-02	-2.165904e-20	9.777370e-03	-2.444343e-04	8.626281e-03	3.666985e-04	7.089535e-03	7.578403e-03	3.666985e-04	-3.666985e-04	1.351497e-02	-3.737596e-03
132           	1.473843e-02	-2.229092e-20	9.244786e-03	-2.311196e-04	9.772945e-03	3.684608e-04	7.138096e-03	7.600335e-03	3.684608e-04	-3.684608e-04	1.439534e-02	-5.150552e-03
133           	1.470032e-02	-2.241149e-20	8.768423e-03	-2.192106e-04	1.059736e-02	3.675081e-04	7.130951e-03	7.569372e-03	3.675081e-04	-3.675081e-04	1.498158e-02	-6.213152e-03
134           	1.420499e-02	-2.267471e-20	8.472608e-03	-2.118152e-04	1.029399e-02	3.551247e-04	6.890678e-03	7.314308e-03	3.551247e-04	-3.551247e-04	1.453030e-02	-6.057690e-03
135           	1.359333e-02	-2.278386e-20	8.458228e-03	-2.114557e-04	9.261548e-03	3.398334e-04	6.585212e-03	7.008123e-03	3.398334e-04	-3.398334e-04	1.349066e-02	-5.032434e-03
136           	1.303517e-02	-2.277696e-20	8.739891e-03	-2.184973e-04	7.792101e-03	3.258792e-04	6.299087e-03	6.736082e-03	3.258792e-04	-3.258792e-04	1.216205e-02	-3.422156e-03
137           	1.260527e-02	-2.262551e-20	9.295638e-03	-2.323909e-04	6.068034e-03	3.151316e-04	6.070242e-03	6.535024e-03	3.151316e-04	-3.151316e-04	1.071585e-02	-1.420215e-03
138           	1.240235e-02	-2.214573e-20	1.001458e-02	-2.503644e-04	4.443107e-03	3.100588e-04	5.950812e-03	6.451541e-03	3.100588e-04	-3.100588e-04	9.450396e-03	5.641818e-04
139           	1.231514e-02	-2.173835e-20	1.079849e-02	-2.699622e-04	2.870620e-03	3.078786e-04	5.887610e-03	6.427534e-03	3.078786e-04	-3.078786e-04	8.269865e-03	2.528625e-03
140           	1.244424e-02	-2.151869e-20	1.147579e-02	-2.868947e-04	1.857933e-03	3.111061e-04	5.935227e-03	6.509016e-03	3.111061e-04	-3.111061e-04	7.595826e-03	3.879960e-03
141           	1.279613e-02	-2.154009e-20	1.178398e-02	-2.945994e-04	1.897613e-03	3.199032e-04	6.103464e-03	6.692663e-03	3.199032e-04	-3.199032e-04	7.789602e-03	3.994375e-03
142           	1.344027e-02	-2.147528e-20	1.179124e-02	-2.947811e-04	2.962520e-03	3.360067e-04	6.425353e-03	7.014916e-03	3.360067e-04	-3.360067e-04	8.858141e-03	2.933102e-03
143           	1.416353e-02	-2.190921e-20	1.154585e-02	-2.886462e-04	4.613203e-03	3.540882e-04	6.793117e-03	7.370409e-03	3.540882e-04	-3.540882e-04	1.038613e-02	1.159720e-03
144           	1.456555e-02	-2.249733e-20	1.099655e-02	-2.749137e-04	6.228908e-03	3.641388e-04	7.007861e-03	7.557689e-03	3.641388e-04	-3.641388e-04	1.172718e-02	-7.306346e-04
145           	1.470288e-02	-2.244772e-20	1.028848e-02	-2.572119e-04	7.705574e-03	3.675720e-04	7.094227e-03	7.608651e-03	3.675720e-04	-3.675720e-04	1.284981e-02	-2.561336e-03
146           	1.471077e-02	-2.194744e-20	9.664420e-03	-2.416105e-04	8.935443e-03	3.677691e-04	7.113772e-03	7.596993e-03	3.677691e-04	-3.677691e-04	1.376765e-02	-4.103233e-03
147           	1.479270e-02	-2.265450e-20	9.162797e-03	-2.290699e-04	1.003132e-02	3.698175e-04	7.167279e-03	7.625419e-03	3.698175e-04	-3.698175e-04	1.461272e-02	-5.449921e-03
148           	1.464639e-02	-2.252374e-20	8.691304e-03	-2.172826e-04	1.065580e-02	3.661597e-04	7.105912e-03	7.540477e-03	3.661597e-04	-3.661597e-04	1.500146e-02	-6.310153e-03
149           	1.408254e-02	-2.254444e-20	8.441216e-03	-2.110304e-04	1.014665e-02	3.520634e-04	6.830238e-03	7.252299e-03	3.520634e-04	-3.520634e-04	1.436726e-02	-5.926044e-03
150           	1.346495e-02	-2.248282e-20	8.489139e-03	-2.122285e-04	8.987230e-03	3.366237e-04	6.520246e-03	6.944703e-03	3.366237e-04	-3.366237e-04	1.323180e-02	-4.742660e-03
151           	1.291628e-02	-2.248618e-20	8.837808e-03	-2.209452e-04	7.415077e-03	3.229070e-04	6.237195e-03	6.679086e-03	3.229070e-04	-3.229070e-04	1.183398e-02	-2.996173e-03
152           	1.254121e-02	-2.238121e-20	9.451851e-03	-2.362963e-04	5.683924e-03	3.135304e-04	6.034311e-03	6.506903e-03	3.135304e-04	-3.135304e-04	1.040985e-02	-9.579985e-04
153           	1.237468e-02	-2.200679e-20	1.019710e-02	-2.549274e-04	4.067915e-03	3.093671e-04	5.932414e-03	6.442269e-03	3.093671e-04	-3.093671e-04	9.166464e-03	1.030633e-03
154           	1.233354e-02	-2.173266e-20	1.098219e-02	-2.745549e-04	2.565325e-03	3.083384e-04	5.892214e-03	6.441324e-03	3.083384e-04	-3.083384e-04	8.056422e-03	2.925772e-03
155           	1.254776e-02	-2.173818e-20	1.154791e-02	-2.886977e-04	1.906304e-03	3.136939e-04	5.985180e-03	6.562576e-03	3.136939e-04	-3.136939e-04	7.680258e-03	3.867650e-03
156           	1.296811e-02	-2.161994e-20	1.177237e-02	-2.943093e-04	2.203562e-03	3.242027e-04	6.189745e-03	6.778363e-03	3.242027e-04	-3.242027e-04	8.089748e-03	3.682624e-03
157           	1.368649e-02	-2.148432e-20	1.172677e-02	-2.931692e-04	3.492170e-03	3.421621e-04	6.550074e-03	7.136412e-03	3.421621e-04	-3.421621e-04	9.355554e-03	2.371214e-03
158           	1.431837e-02	-2.184942e-20	1.139145e-02	-2.847864e-04	5.134769e-03	3.579594e-04	6.874401e-03	7.443973e-03	3.579594e-04	-3.579594e-04	1.083050e-02	5.609585e-04
159           	1.461305e-02	-2.228828e-20	1.077838e-02	-2.694596e-04	6.683549e-03	3.653261e-04	7.037063e-03	7.575982e-03	3.653261e-04	-3.653261e-04	1.207274e-02	-1.294357e-03
160           	1.467899e-02	-2.206809e-20	1.008053e-02	-2.520132e-04	8.052246e-03	3.669749e-04	7.087484e-03	7.591511e-03	3.669749e-04	-3.669749e-04	1.309251e-02	-3.011982e-03
161           	1.471786e-02	-2.206836e-20	9.467420e-03	-2.366855e-04	9.308953e-03	3.679466e-04	7.122247e-03	7.595618e-03	3.679466e-04	-3.679466e-04	1.404266e-02	-4.575243e-03
162           	1.476293e-02	-2.245850e-20	9.000949e-03	-2.250237e-04	1.026921e-02	3.690733e-04	7.156442e-03	7.606489e-03	3.690733e-04	-3.690733e-04	1.476968e-02	-5.768732e-03
163           	1.449855e-02	-2.240155e-20	8.589511e-03	-2.147378e-04	1.058268e-02	3.624638e-04	7.034539e-03	7.464014e-03	3.624638e-04	-3.624638e-04	1.487744e-02	-6.287924e-03
164           	1.391505e-02	-2.253035e-20	8.426839e-03	-2.106710e-04	9.877367e-03	3.478762e-04	6.746854e-03	7.168196e-03	3.478762e-04	-3.478762e-04	1.409079e-02	-5.663947e-03
165           	1.329360e-02	-2.261888e-20	8.552107e-03	-2.138027e-04	8.574495e-03	3.323401e-04	6.433000e-03	6.860605e-03	3.323401e-04	-3.323401e-04	1.285055e-02	-4.298442e-03
166           	1.277728e-02	-2.264835e-20	8.975485e-03	-2.243871e-04	6.931344e-03	3.194320e-04	6.164253e-03	6.613027e-03	3.194320e-04	-3.194320e-04	1.141909e-02	-2.443601e-03
167           	1.247034e-02	-2.248524e-20	9.638575e-03	-2.409644e-04	5.230734e-03	3.117584e-04	5.994204e-03	6.476133e-03	3.117584e-04	-3.117584e-04	1.005002e-02	-4.114466e-04